# Force             
# CofR              : (0.000000000000e+00 0.000000000000e+00 5.000000000000e-01)
#
# Time              	(total_x total_y total_z)	(pressure_x pressure_y pressure_z)	(viscous_x viscous_y viscous_z)
6.32518e-05         	(1.210006014617e+04 1.416877878308e+05 1.439629154521e-13)	(1.207345847002e+04 1.416860022831e+05 -2.435759690243e-16)	(2.660167615188e+01 1.785547614816e+00 1.442064914212e-13)
0.000129784         	(-6.355684118606e+03 -7.264905872143e+04 -7.241581493869e-13)	(-6.383520950763e+03 -7.264957248495e+04 8.292614203299e-17)	(2.783683215657e+01 5.137635240060e-01 -7.242410755289e-13)
0.000206139         	(1.582360699180e+02 2.393259655904e+03 2.225948546425e-13)	(1.297325870478e+02 2.393001541421e+03 -7.610447523145e-18)	(2.850348287019e+01 2.581144832713e-01 2.226024650900e-13)
0.000294695         	(-1.025825478032e+01 6.581878165414e+02 9.583350754032e-13)	(-3.853311018020e+01 6.579024784854e+02 -1.483479117513e-19)	(2.827485539989e+01 2.853380559844e-01 9.583352237512e-13)
0.000396606         	(-3.635031135301e+00 9.294432105448e+02 1.307472299866e-13)	(-3.092369831387e+01 9.290695948653e+02 -1.643085146328e-19)	(2.728866717857e+01 3.736156795412e-01 1.307473942951e-13)
0.000511965         	(-8.879822848366e+00 9.755295347136e+02 5.113942703848e-14)	(-3.473178711279e+01 9.750799986456e+02 -1.471946121912e-18)	(2.585196426442e+01 4.495360679564e-01 5.114089898461e-14)
0.000640932         	(-1.470583894597e+01 1.031759949338e+03 1.081647243285e-13)	(-3.898523914826e+01 1.031254537937e+03 5.396722644580e-18)	(2.427940020229e+01 5.054114006631e-01 1.081593276058e-13)
0.00077745          	(-1.956416425532e+01 1.073974535825e+03 -4.191016697469e-13)	(-4.240731313875e+01 1.073428323076e+03 1.632115539981e-18)	(2.284314888343e+01 5.462127489226e-01 -4.191033018624e-13)
0.000914685         	(-2.197327000171e+01 1.094870646331e+03 1.434643632295e-13)	(-4.364762575349e+01 1.094289799240e+03 -1.080117476448e-18)	(2.167435575178e+01 5.808470903343e-01 1.434654433469e-13)
0.00105563          	(-2.383219255346e+01 1.075984646449e+03 5.678196135500e-13)	(-4.457223033826e+01 1.075373397335e+03 3.918019665746e-18)	(2.074003778481e+01 6.112491143511e-01 5.678156955303e-13)
0.00120514          	(-2.717269206332e+01 1.065903224106e+03 7.995638419837e-14)	(-4.716536889922e+01 1.065262940710e+03 4.997676366541e-18)	(1.999267683590e+01 6.402833959963e-01 7.995138652201e-14)
0.0013669           	(-2.928599314884e+01 1.074874938535e+03 -3.222465948448e-13)	(-4.868247341408e+01 1.074204950595e+03 5.055319233754e-18)	(1.939648026523e+01 6.699879401794e-01 -3.222516501640e-13)
0.00152312          	(-3.041018516134e+01 1.096215142535e+03 5.068519765043e-13)	(-4.937796235413e+01 1.095516644700e+03 1.311574146644e-18)	(1.896777719279e+01 6.984978351490e-01 5.068506649302e-13)
0.00167945          	(-3.185848059925e+01 1.124679602725e+03 5.634678734672e-14)	(-5.050127581949e+01 1.123954573850e+03 -4.976865170135e-18)	(1.864279522024e+01 7.250288746588e-01 5.635176421189e-14)
0.00184366          	(-3.320399047281e+01 1.147449664807e+03 -3.136811676628e-13)	(-5.158401877214e+01 1.146701838625e+03 -4.182477740681e-18)	(1.838002829933e+01 7.478261817544e-01 -3.136769851850e-13)
0.00201979          	(-3.417442886645e+01 1.164068122665e+03 4.537814551910e-13)	(-5.233578084141e+01 1.163302284456e+03 6.418502852117e-19)	(1.816135197496e+01 7.658382085229e-01 4.537808133407e-13)
0.00220069          	(-3.493554892974e+01 1.175932545222e+03 -2.828599183849e-13)	(-5.292235692173e+01 1.175153253419e+03 5.345964783487e-18)	(1.798680799199e+01 7.792918025854e-01 -2.828652643497e-13)
0.00238705          	(-3.642963620775e+01 1.182564666275e+03 4.103643173511e-13)	(-5.427733743049e+01 1.181774879344e+03 1.318067571941e-17)	(1.784770122273e+01 7.897869310600e-01 4.103511366753e-13)
0.00257012          	(-3.770685687150e+01 1.191287047819e+03 7.363426128119e-14)	(-5.544939864170e+01 1.190487753998e+03 -1.744951466725e-18)	(1.774254177021e+01 7.992938210844e-01 7.363600623266e-14)
0.00274902          	(-3.946217693274e+01 1.202511922800e+03 4.171128627315e-14)	(-5.712315615562e+01 1.201703736159e+03 1.573119815939e-17)	(1.766097922287e+01 8.081866403586e-01 4.169555507499e-14)
0.00292731          	(-4.119492923582e+01 1.214911880057e+03 8.103574071115e-14)	(-5.878792559338e+01 1.214095420222e+03 5.661220265748e-18)	(1.759299635756e+01 8.164598352810e-01 8.103007949089e-14)
0.0031091           	(-4.311834409926e+01 1.227525884627e+03 4.997826089203e-14)	(-6.064910034940e+01 1.226702523629e+03 5.221332085223e-18)	(1.753075625014e+01 8.233609983470e-01 4.997303955994e-14)
0.00329751          	(-4.484719360006e+01 1.236205271455e+03 5.651357306695e-14)	(-6.231687961457e+01 1.235376482169e+03 -4.037976495968e-18)	(1.746968601451e+01 8.287892864134e-01 5.651761104345e-14)
0.00349305          	(-4.637427182439e+01 1.243928283025e+03 4.040312696004e-14)	(-6.378276665963e+01 1.243095811747e+03 -6.757081064715e-18)	(1.740849483525e+01 8.324712779561e-01 4.040988404111e-14)
0.00369345          	(-4.782753693113e+01 1.250879491943e+03 4.032422284621e-14)	(-6.517489969666e+01 1.250044172849e+03 -6.660646278146e-18)	(1.734736276553e+01 8.353190940044e-01 4.033088349249e-14)
0.00389572          	(-4.902958389968e+01 1.257493256409e+03 8.031166215028e-14)	(-6.631568131330e+01 1.256655918504e+03 -3.817932308738e-18)	(1.728609741361e+01 8.373379047233e-01 8.031548008259e-14)
0.004098            	(-5.031465792492e+01 1.266367586164e+03 2.815952640485e-14)	(-6.753903807227e+01 1.265528258351e+03 -6.762059328725e-18)	(1.722438014735e+01 8.393278133874e-01 2.816628846417e-14)
0.00430028          	(-5.108269503294e+01 1.274834981570e+03 6.935500440101e-14)	(-6.824445691472e+01 1.273993722517e+03 -1.756457920493e-18)	(1.716176188178e+01 8.412590526835e-01 6.935676085893e-14)
0.00450416          	(-5.214643205279e+01 1.285752623154e+03 5.025390250707e-14)	(-6.924368221983e+01 1.284909536609e+03 -1.080839869792e-18)	(1.709725016704e+01 8.430865440992e-01 5.025498334694e-14)
0.00471082          	(-5.292122462406e+01 1.295819411390e+03 3.253669110435e-14)	(-6.995142935667e+01 1.294974717342e+03 -2.960572057778e-18)	(1.703020473260e+01 8.446940477659e-01 3.253965167641e-14)
0.00492086          	(-5.365262168917e+01 1.306110726714e+03 4.988365039321e-14)	(-7.061371342251e+01 1.305264728206e+03 9.870154244855e-18)	(1.696109173334e+01 8.459985076908e-01 4.987378023897e-14)
0.00513368          	(-5.437652598476e+01 1.315161734541e+03 5.367422229566e-14)	(-7.126756926611e+01 1.314314614545e+03 -6.708259452053e-18)	(1.689104328135e+01 8.471199958600e-01 5.368093055511e-14)
0.00534793          	(-5.512683626559e+01 1.324683180922e+03 3.247870023447e-14)	(-7.194815867695e+01 1.323834947738e+03 2.923452664683e-18)	(1.682132241136e+01 8.482331842805e-01 3.247577678180e-14)
0.00556253          	(-5.556476100861e+01 1.327058355908e+03 4.755746977609e-14)	(-7.231778898047e+01 1.326208977343e+03 -6.925035222775e-18)	(1.675302797186e+01 8.493785654606e-01 4.756439481131e-14)
0.0057775           	(-5.661087587184e+01 1.343649743336e+03 4.758563154623e-14)	(-7.329683979440e+01 1.342798941533e+03 2.677961942821e-18)	(1.668596392256e+01 8.508018028430e-01 4.758295358428e-14)
0.00599337          	(-5.746133344634e+01 1.353895934112e+03 -2.194114980844e-13)	(-7.408097626935e+01 1.353043568358e+03 -1.139237955924e-17)	(1.661964282301e+01 8.523657539960e-01 -2.194001057049e-13)
0.00621126          	(-5.831203743075e+01 1.362532610009e+03 7.432756126412e-14)	(-7.486575463969e+01 1.361678721301e+03 -1.069477391204e-18)	(1.655371720893e+01 8.538887080878e-01 7.432863074151e-14)
0.00643159          	(-5.906285395685e+01 1.372661131799e+03 8.333799745904e-14)	(-7.555117658042e+01 1.371805762726e+03 -1.718637784985e-18)	(1.648832262357e+01 8.553690730465e-01 8.333971609682e-14)
0.00665404          	(-6.154674534934e+01 1.374039879188e+03 3.096071956318e-13)	(-7.796950577585e+01 1.373183247451e+03 -3.576421460638e-18)	(1.642276042650e+01 8.566317364620e-01 3.096107720533e-13)
0.00687785          	(-6.059997552584e+01 1.393660655461e+03 3.160929403224e-14)	(-7.695897950409e+01 1.392802641824e+03 -2.993001463034e-18)	(1.635900397825e+01 8.580136370344e-01 3.161228703370e-14)
0.00710245          	(-6.161740120072e+01 1.401465445625e+03 4.843159103504e-14)	(-7.791414230820e+01 1.400606026321e+03 -2.457162998828e-18)	(1.629674110747e+01 8.594193038886e-01 4.843404819804e-14)
0.00732725          	(-6.235554066260e+01 1.411365542339e+03 3.783467925338e-14)	(-7.859157117851e+01 1.410504634575e+03 9.254003564001e-18)	(1.623603051591e+01 8.609077636929e-01 3.782542524981e-14)
0.00755265          	(-6.319368653329e+01 1.421536543874e+03 3.687127420848e-14)	(-7.937026781601e+01 1.420674143477e+03 -1.187668495464e-17)	(1.617658128271e+01 8.624003965432e-01 3.688315089343e-14)
0.00777884          	(-6.460822248070e+01 1.425989972909e+03 5.554513490185e-14)	(-8.072630022343e+01 1.425126112623e+03 1.639553631253e-18)	(1.611807774273e+01 8.638602856613e-01 5.554349534822e-14)
0.00800626          	(-6.477137394424e+01 1.439689699392e+03 4.027542784984e-14)	(-8.083230599780e+01 1.438824357746e+03 6.622621320317e-19)	(1.606093205356e+01 8.653416465469e-01 4.027476558771e-14)
0.0082349           	(-6.563420218687e+01 1.448061698910e+03 3.817067860392e-14)	(-8.163935500651e+01 1.447194795361e+03 -9.352504938060e-18)	(1.600515281963e+01 8.669035485210e-01 3.818003110886e-14)
0.00846458          	(-6.659301265142e+01 1.454647559870e+03 4.554173132149e-14)	(-8.254352135951e+01 1.453779204967e+03 3.901189747001e-18)	(1.595050870808e+01 8.683549028395e-01 4.553783013174e-14)
0.00869488          	(-6.717553102431e+01 1.466011716028e+03 4.001757089627e-14)	(-8.307290796226e+01 1.465141752177e+03 -9.159054176811e-18)	(1.589737693794e+01 8.699638511834e-01 4.002672995044e-14)
0.00892603          	(-6.805679265064e+01 1.474399324817e+03 5.301265034773e-14)	(-8.390205202290e+01 1.473527849933e+03 -3.649785607192e-18)	(1.584525937225e+01 8.714748838806e-01 5.301630013334e-14)
0.00915781          	(-6.881196355425e+01 1.484718751654e+03 2.868398674231e-14)	(-8.460637883986e+01 1.483845596778e+03 -9.874994578336e-18)	(1.579441528561e+01 8.731548762591e-01 2.869386173689e-14)
0.00939066          	(-7.020032591042e+01 1.486641033796e+03 5.944412867305e-14)	(-8.594437470542e+01 1.485766454463e+03 3.717252208815e-18)	(1.574404879500e+01 8.745793338906e-01 5.944041142084e-14)
0.00962437          	(-7.046105740897e+01 1.500486458192e+03 3.931317434860e-14)	(-8.615605996330e+01 1.499610219094e+03 -1.947739063958e-18)	(1.569500255433e+01 8.762390978121e-01 3.931512208767e-14)
0.00985917          	(-7.131050968581e+01 1.508793571483e+03 3.925067991541e-14)	(-8.695717681742e+01 1.507915798581e+03 3.150679600978e-18)	(1.564666713161e+01 8.777729022367e-01 3.924752923581e-14)
0.0100951           	(-7.308672282063e+01 1.512173327997e+03 -2.163054457994e-13)	(-8.868539292370e+01 1.511294007891e+03 -1.292340652113e-18)	(1.559867010307e+01 8.793201057239e-01 -2.163041534588e-13)
0.0103319           	(-7.267488191879e+01 1.527140879570e+03 2.919339122533e-13)	(-8.822678819406e+01 1.526259971778e+03 -7.067388942420e-18)	(1.555190627527e+01 8.809077922526e-01 2.919409796422e-13)
0.0105693           	(-7.404516164387e+01 1.528068046008e+03 -2.076058802259e-13)	(-8.955110928960e+01 1.527185575299e+03 2.724329297565e-18)	(1.550594764573e+01 8.824707085068e-01 -2.076086045552e-13)
0.0108074           	(-7.477392216122e+01 1.539410954813e+03 3.110943002683e-13)	(-9.023462910765e+01 1.538526925858e+03 3.967740311308e-18)	(1.546070694642e+01 8.840289550262e-01 3.110903325279e-13)
0.0110465           	(-7.498134392553e+01 1.551089937939e+03 3.715468137749e-14)	(-9.039789984718e+01 1.550204160899e+03 -5.322392153427e-19)	(1.541655592165e+01 8.857770397848e-01 3.715521361671e-14)
0.0112862           	(-7.583096817585e+01 1.559158667089e+03 -2.110897656938e-13)	(-9.120415944894e+01 1.558271244864e+03 -9.120969490099e-18)	(1.537319127309e+01 8.874222249447e-01 -2.110806447243e-13)
0.0115266           	(-7.655256118138e+01 1.567677049901e+03 3.198139943927e-13)	(-9.188318340286e+01 1.566787879400e+03 -3.509150823183e-18)	(1.533062222148e+01 8.891705004670e-01 3.198175035435e-13)
0.0117677           	(-7.750819846885e+01 1.572674379114e+03 3.736076789479e-14)	(-9.279684212568e+01 1.571783607176e+03 -5.354716757702e-18)	(1.528864365682e+01 8.907719379690e-01 3.736612261154e-14)
0.0120095           	(-7.820268092946e+01 1.581175102811e+03 4.747267321355e-14)	(-9.345018487546e+01 1.580282564180e+03 -4.149760873301e-18)	(1.524750394600e+01 8.925386304480e-01 4.747682297443e-14)
0.0122518           	(-7.748692235017e+01 1.592798732939e+03 3.615254989085e-14)	(-9.269487909350e+01 1.591904465827e+03 1.929169394676e-19)	(1.520795674333e+01 8.942671117361e-01 3.615235697391e-14)
0.0124948           	(-7.943397709179e+01 1.600184200902e+03 4.193339686742e-14)	(-9.460266399614e+01 1.599288097600e+03 2.701762686867e-18)	(1.516868690434e+01 8.961033026133e-01 4.193069510474e-14)
0.0127383           	(-7.995610457213e+01 1.611124891733e+03 -2.027273444534e-13)	(-9.508609505128e+01 1.610226999848e+03 1.882314423152e-18)	(1.512999047915e+01 8.978918850335e-01 -2.027292267678e-13)
0.0129822           	(-8.072924171028e+01 1.616578892254e+03 2.995639838001e-13)	(-9.582120164361e+01 1.615679155479e+03 2.601294376373e-18)	(1.509195993333e+01 8.997367740937e-01 2.995613825057e-13)
0.0132269           	(-8.145288458014e+01 1.624933514177e+03 3.969347989047e-14)	(-9.650745329869e+01 1.624032011320e+03 8.592575280702e-18)	(1.505456871855e+01 9.015028570669e-01 3.968488731518e-14)
0.013472            	(-8.221457832327e+01 1.632721693027e+03 3.401620690353e-14)	(-9.723238428923e+01 1.631818346355e+03 7.267674605761e-18)	(1.501780596596e+01 9.033466722590e-01 3.400893922892e-14)
0.0137174           	(-8.331554946336e+01 1.633785875131e+03 3.562165600376e-14)	(-9.829715787580e+01 1.632880877090e+03 -8.015958135216e-18)	(1.498160841244e+01 9.049980417003e-01 3.562967196190e-14)
0.0139633           	(-8.361670739795e+01 1.647820848373e+03 4.697908490981e-14)	(-9.856288819915e+01 1.646914025340e+03 4.274373142720e-18)	(1.494618080120e+01 9.068230329941e-01 4.697481053667e-14)
0.0142094           	(-8.430239521823e+01 1.655161960461e+03 -1.818858379870e-13)	(-9.921376823111e+01 1.654253421058e+03 1.898727425607e-17)	(1.491137301288e+01 9.085394027581e-01 -1.819048252612e-13)
0.014456            	(-8.499702927255e+01 1.663142287589e+03 2.857798000961e-13)	(-9.987425323795e+01 1.662231924902e+03 5.021329907145e-18)	(1.487722396540e+01 9.103626861910e-01 2.857747787662e-13)
0.0147031           	(-8.569466313085e+01 1.670942043104e+03 3.008118508473e-14)	(-1.005382294986e+02 1.670029964530e+03 -8.707099645322e-18)	(1.484356636775e+01 9.120785739502e-01 3.008989218437e-14)
0.0149507           	(-8.638517167443e+01 1.678513000107e+03 4.883457033586e-14)	(-1.011957166108e+02 1.677599150587e+03 -9.796849220824e-18)	(1.481054493634e+01 9.138495198516e-01 4.884436718508e-14)
0.0151985           	(-8.708699246113e+01 1.686454166316e+03 3.524099125739e-14)	(-1.018650770568e+02 1.685538618671e+03 8.817069896517e-18)	(1.477808459566e+01 9.155476452430e-01 3.523217418749e-14)
0.0154468           	(-8.779732391939e+01 1.693462658018e+03 3.489680254069e-14)	(-1.025435384826e+02 1.692545387862e+03 1.094578702942e-17)	(1.474621456319e+01 9.172701561559e-01 3.488585675366e-14)
0.0156954           	(-8.837770828373e+01 1.700689807314e+03 2.925660492842e-14)	(-1.030927074280e+02 1.699770985641e+03 8.059033187243e-18)	(1.471499914428e+01 9.188216728786e-01 2.924854589524e-14)
0.0159443           	(-8.918460011044e+01 1.707708552982e+03 5.054899919155e-14)	(-1.038689992088e+02 1.706788072494e+03 -1.132053293439e-17)	(1.468439909838e+01 9.204804881926e-01 5.056031972449e-14)
0.0161934           	(-9.018973598550e+01 1.708536832472e+03 -1.852447555391e-13)	(-1.048440778869e+02 1.707614865986e+03 7.062801345295e-18)	(1.465434190142e+01 9.219664858700e-01 -1.852518183405e-13)
0.0164427           	(-9.061277358749e+01 1.720709988817e+03 4.175438557711e-14)	(-1.052378002150e+02 1.719786381839e+03 5.735582760040e-18)	(1.462502662755e+01 9.236069782001e-01 4.174864999435e-14)
0.0166923           	(-9.134891902571e+01 1.727031174577e+03 2.854536545639e-13)	(-1.059450898761e+02 1.726106049436e+03 -1.210325798325e-17)	(1.459617085035e+01 9.251251413257e-01 2.854657578219e-13)
0.0169422           	(-9.206260825070e+01 1.733711545163e+03 -1.784994405235e-13)	(-1.066307213837e+02 1.732784816945e+03 2.447438224433e-19)	(1.456811313296e+01 9.267282175959e-01 -1.784996852673e-13)
0.0171923           	(-9.276942112400e+01 1.740391358058e+03 2.585084088995e-13)	(-1.073099022273e+02 1.739463164199e+03 -3.939334928464e-18)	(1.454048110330e+01 9.281938589722e-01 2.585123482344e-13)
0.0174426           	(-9.345428902264e+01 1.747703812182e+03 4.300106356892e-14)	(-1.079676934519e+02 1.746774106215e+03 -1.143022318997e-18)	(1.451340442922e+01 9.297059669214e-01 4.300220659124e-14)
0.017693            	(-9.397912814422e+01 1.755026694434e+03 4.200992385464e-14)	(-1.084659559836e+02 1.754095511178e+03 -7.204656334675e-18)	(1.448682783936e+01 9.311832568181e-01 4.201712851098e-14)
0.0179436           	(-9.451961351037e+01 1.762138954259e+03 4.090799036393e-14)	(-1.089804353959e+02 1.761206211280e+03 -1.937467263158e-17)	(1.446082188556e+01 9.327429791914e-01 4.092736503656e-14)
0.0181945           	(-9.515473201472e+01 1.769265280677e+03 5.023052986610e-14)	(-1.095900096828e+02 1.768330970862e+03 -4.854283873036e-19)	(1.443527766808e+01 9.343098156140e-01 5.023101529448e-14)
0.0184454           	(-9.581648719891e+01 1.775491302043e+03 4.647900550648e-14)	(-1.102265828233e+02 1.774555409903e+03 -1.779882734695e-17)	(1.441009562437e+01 9.358921400402e-01 4.649680433382e-14)
0.0186965           	(-9.628888836785e+01 1.783480198207e+03 3.899315218894e-14)	(-1.106741340733e+02 1.782542796802e+03 -6.206341492009e-18)	(1.438524570546e+01 9.374014055355e-01 3.899935853043e-14)
0.0189479           	(-9.685102217585e+01 1.790661161181e+03 3.777437077322e-14)	(-1.112118981745e+02 1.789722151860e+03 8.726973654627e-18)	(1.436087599864e+01 9.390093208356e-01 3.776564379957e-14)
0.0191993           	(-9.741705139761e+01 1.797724626576e+03 4.177643333554e-14)	(-1.117540799094e+02 1.796784125667e+03 -5.034289660665e-18)	(1.433702851184e+01 9.405009091616e-01 4.178146762520e-14)
0.019451            	(-9.803660428743e+01 1.797625400513e+03 2.717374439668e-14)	(-1.123503622858e+02 1.796683513356e+03 1.728091523943e-17)	(1.431375799840e+01 9.418871567297e-01 2.715646348144e-14)
0.0197027           	(-9.845490722544e+01 1.811209377643e+03 3.682127544402e-14)	(-1.127458641740e+02 1.810266073190e+03 1.510464497792e-19)	(1.429095694857e+01 9.433044530328e-01 3.682112439757e-14)
0.0199543           	(-9.925168752544e+01 1.814999356620e+03 4.080109772580e-14)	(-1.135202492484e+02 1.814054611867e+03 5.500082460914e-19)	(1.426856172294e+01 9.447447531388e-01 4.080054771755e-14)
0.020206            	(-9.974858179370e+01 1.824824116279e+03 3.979442755503e-14)	(-1.139950761212e+02 1.823878105901e+03 -3.386863685549e-19)	(1.424649432753e+01 9.460103772695e-01 3.979476624140e-14)
0.0204576           	(-1.004616196172e+02 1.831184834609e+03 4.283885387044e-14)	(-1.146863682480e+02 1.830237489475e+03 1.218218840257e-18)	(1.422474863084e+01 9.473451336437e-01 4.283763565160e-14)
0.0207093           	(-1.011588213706e+02 1.837883022688e+03 3.285118904057e-14)	(-1.153620811255e+02 1.836934462656e+03 -1.391188716721e-17)	(1.420325975485e+01 9.485600316333e-01 3.286510092774e-14)
0.0209607           	(-1.018608950612e+02 1.844072368759e+03 3.924183325672e-14)	(-1.160429954182e+02 1.843122471928e+03 -1.232672893485e-17)	(1.418210035700e+01 9.498968306531e-01 3.925415998566e-14)
0.0212118           	(-1.025122285792e+02 1.850420312194e+03 -1.843332534914e-13)	(-1.166735087454e+02 1.849469186194e+03 -1.686455828904e-18)	(1.416128016620e+01 9.511259990622e-01 -1.843315670356e-13)
0.0214627           	(-1.032493638474e+02 1.855418001807e+03 2.733696025659e-13)	(-1.173900224448e+02 1.854465560955e+03 -9.488807963724e-18)	(1.414065859739e+01 9.524408518957e-01 2.733790913738e-13)
0.0217133           	(-1.038265141614e+02 1.862432759335e+03 4.404187241605e-14)	(-1.179469008807e+02 1.861479070632e+03 -6.544405972116e-18)	(1.412038671927e+01 9.536887031746e-01 4.404841682202e-14)
0.0219637           	(-1.044621225204e+02 1.868326734765e+03 2.245394680289e-14)	(-1.185624187513e+02 1.867371657499e+03 -4.820229714906e-18)	(1.410029623089e+01 9.550772660867e-01 2.245876703261e-14)
0.0222138           	(-1.048988703387e+02 1.876148534643e+03 4.459894561523e-14)	(-1.189795709928e+02 1.875192166577e+03 -1.866115378574e-17)	(1.408070065402e+01 9.563680660389e-01 4.461760676902e-14)
0.0224638           	(-1.055746269854e+02 1.880570202509e+03 3.077306615772e-14)	(-1.196360070721e+02 1.879612371328e+03 8.365245238972e-18)	(1.406138008667e+01 9.578311811931e-01 3.076470091248e-14)
0.0227137           	(-1.057117177231e+02 1.891657349082e+03 -1.882279443955e-13)	(-1.197542216897e+02 1.890698218934e+03 -4.593873876862e-18)	(1.404250396668e+01 9.591301477841e-01 -1.882233505217e-13)
0.0229632           	(-1.066219218294e+02 1.892798747477e+03 2.794691009406e-13)	(-1.206456790059e+02 1.891838111785e+03 -4.665244194990e-18)	(1.402375717650e+01 9.606356920215e-01 2.794737661848e-13)
0.0232125           	(-1.071502285389e+02 1.898947747269e+03 4.969219728610e-14)	(-1.211555606510e+02 1.897985846127e+03 3.826382930709e-20)	(1.400533211212e+01 9.619011427023e-01 4.969215902227e-14)
0.0234616           	(-1.077283666203e+02 1.904422131046e+03 -1.819662092829e-13)	(-1.217153164892e+02 1.903458739855e+03 3.945515115970e-18)	(1.398694986891e+01 9.633911913239e-01 -1.819701547981e-13)
0.0237104           	(-1.082522529908e+02 1.910138356626e+03 2.774053718114e-13)	(-1.222213013376e+02 1.909173629551e+03 -1.512258665393e-17)	(1.396904834677e+01 9.647270748455e-01 2.774204943980e-13)
0.0239592           	(-1.088666121244e+02 1.915346693289e+03 -1.988271352539e-13)	(-1.228176558132e+02 1.914380569184e+03 -1.229725429672e-17)	(1.395104368888e+01 9.661241049664e-01 -1.988148379996e-13)
0.0242077           	(-1.095109856716e+02 1.921290896293e+03 2.791931940035e-13)	(-1.234446345087e+02 1.920323357918e+03 -1.836989391963e-17)	(1.393364883714e+01 9.675383748044e-01 2.792115638974e-13)
0.024456            	(-1.099100727805e+02 1.926172653116e+03 3.662626156391e-14)	(-1.238261594949e+02 1.925203887006e+03 -4.847760267167e-18)	(1.391608671440e+01 9.687661094042e-01 3.663110932417e-14)
0.0247042           	(-1.058946077459e+02 1.939119627472e+03 3.289904910459e-14)	(-1.197965642547e+02 1.938149459122e+03 -1.160591956424e-17)	(1.390195650887e+01 9.701683499797e-01 3.291065502415e-14)
0.0249522           	(-1.109677886464e+02 1.939220878863e+03 4.419010119700e-14)	(-1.248539282751e+02 1.938249275730e+03 -6.423379880133e-18)	(1.388613962872e+01 9.716031331353e-01 4.419652457688e-14)
0.0252              	(-1.112807133404e+02 1.945273341073e+03 -1.767080459634e-13)	(-1.251508217627e+02 1.944300541845e+03 -1.688802265407e-17)	(1.387010842234e+01 9.727992282206e-01 -1.766911579408e-13)
0.0254475           	(-1.120466575744e+02 1.949490289383e+03 2.688260104723e-13)	(-1.259006786585e+02 1.948516156829e+03 -2.967089852775e-20)	(1.385402108407e+01 9.741325538437e-01 2.688260401432e-13)
0.0256947           	(-1.124574852040e+02 1.955039628050e+03 4.835716331563e-14)	(-1.262957785400e+02 1.954064520465e+03 1.356921883422e-18)	(1.383829333595e+01 9.751075849992e-01 4.835580639375e-14)
0.0259417           	(-1.133696381832e+02 1.961318862885e+03 3.173518837951e-14)	(-1.271923770570e+02 1.960342411935e+03 2.889282361674e-18)	(1.382273887375e+01 9.764509499485e-01 3.173229909715e-14)
0.0261886           	(-1.139654076849e+02 1.966472011514e+03 -1.859523783823e-13)	(-1.277728203885e+02 1.965494544388e+03 -9.925449815834e-18)	(1.380741270365e+01 9.774671261822e-01 -1.859424529325e-13)
0.0264354           	(-1.145892688639e+02 1.971841050487e+03 5.947810692154e-14)	(-1.283815756664e+02 1.970862337524e+03 5.854201866818e-18)	(1.379230680254e+01 9.787129623234e-01 5.947225271967e-14)
0.0266821           	(-1.152452298548e+02 1.976998322271e+03 5.391446991693e-14)	(-1.290227728098e+02 1.976018531892e+03 -9.167185175797e-18)	(1.377754295504e+01 9.797903793296e-01 5.392363710210e-14)
0.0269288           	(-1.160811265113e+02 1.977814471433e+03 5.944590447765e-14)	(-1.298440314769e+02 1.976833563650e+03 1.775587784156e-17)	(1.376290496558e+01 9.809077834501e-01 5.942814859981e-14)
0.0271752           	(-1.162910930068e+02 1.988642400160e+03 2.719655466931e-13)	(-1.300396910103e+02 1.987660396846e+03 -1.117710242420e-17)	(1.374859800341e+01 9.820033147377e-01 2.719767237955e-13)
0.0274217           	(-1.171044234089e+02 1.991667782512e+03 3.335779117159e-14)	(-1.308389421888e+02 1.990684528637e+03 -1.497987510733e-17)	(1.373451877990e+01 9.832538741441e-01 3.337277104670e-14)
0.0276679           	(-1.177889894392e+02 1.995503978057e+03 5.235791922121e-14)	(-1.315095088173e+02 1.994519706092e+03 2.135918162274e-18)	(1.372051937804e+01 9.842719647321e-01 5.235578330305e-14)
0.0279141           	(-1.182733266552e+02 1.999847541932e+03 4.062725551666e-14)	(-1.319802245446e+02 1.998862138487e+03 5.798194907459e-19)	(1.370689788947e+01 9.854034453276e-01 4.062667569717e-14)
0.02816             	(-1.188596114310e+02 2.006904566563e+03 3.165744530030e-14)	(-1.325530363063e+02 2.005918081943e+03 3.782006134631e-18)	(1.369342487528e+01 9.864846195851e-01 3.165366329416e-14)
0.028406            	(-1.195070925815e+02 2.011743340989e+03 -1.764402654282e-13)	(-1.331870715218e+02 2.010755625798e+03 -8.010042301367e-18)	(1.367997894032e+01 9.877151918106e-01 -1.764322553859e-13)
0.0286519           	(-1.200522617402e+02 2.016936839426e+03 2.652130038984e-13)	(-1.337189019696e+02 2.015948093960e+03 -4.693844540879e-18)	(1.366664022938e+01 9.887454659940e-01 2.652176977430e-13)
0.0288978           	(-1.207056350035e+02 2.021867773012e+03 4.383459568309e-14)	(-1.343590438246e+02 2.020877811053e+03 8.418180921750e-18)	(1.365340882111e+01 9.899619597040e-01 4.382617750216e-14)
0.0291435           	(-1.212759895112e+02 2.026938143293e+03 2.658243225727e-14)	(-1.349162616754e+02 2.025947180835e+03 -4.274331983687e-18)	(1.364027216413e+01 9.909624584530e-01 2.658670658925e-14)
0.0293892           	(-1.218755912052e+02 2.031727574538e+03 4.366119033783e-14)	(-1.355027870077e+02 2.030735402688e+03 1.105692758514e-17)	(1.362719580256e+01 9.921718496078e-01 4.365013341025e-14)
0.0296349           	(-1.229511492137e+02 2.031522209673e+03 4.292210654272e-14)	(-1.365652448108e+02 2.030529065903e+03 -3.004985364749e-18)	(1.361409559707e+01 9.931437694065e-01 4.292511152808e-14)
0.0298805           	(-1.227992448463e+02 2.042431838220e+03 3.823864045510e-14)	(-1.364004705630e+02 2.041437470406e+03 1.700253492715e-18)	(1.360122571672e+01 9.943678139654e-01 3.823694020160e-14)
0.0301262           	(-1.236560365500e+02 2.045410189460e+03 -2.008820499721e-13)	(-1.372445607826e+02 2.044414727795e+03 1.038102136743e-17)	(1.358852423251e+01 9.954616651584e-01 -2.008924309935e-13)
0.0303716           	(-1.241261886037e+02 2.047671847455e+03 2.753992516973e-13)	(-1.377022122841e+02 2.046675169987e+03 7.976257367433e-18)	(1.357602368042e+01 9.966774676930e-01 2.753912754399e-13)
0.030617            	(-1.247225714982e+02 2.054741085579e+03 4.024668947515e-14)	(-1.382861305898e+02 2.053743298490e+03 2.099673101222e-17)	(1.356355909156e+01 9.977870893481e-01 4.022569274414e-14)
0.0308625           	(-1.252941379416e+02 2.059286612449e+03 3.687782525653e-14)	(-1.388452707724e+02 2.058287563429e+03 1.595404407045e-17)	(1.355113283082e+01 9.990490202096e-01 3.686187121246e-14)
0.0311079           	(-1.258308520335e+02 2.064224179478e+03 -1.924436958542e-13)	(-1.393695599951e+02 2.063224163401e+03 -2.997421334541e-18)	(1.353870796164e+01 1.000016076925e+00 -1.924406984329e-13)
0.0313533           	(-1.263958405124e+02 2.068857735378e+03 2.783418802949e-13)	(-1.399223177697e+02 2.067856468425e+03 6.986846812808e-20)	(1.352647725735e+01 1.001266952418e+00 2.783418104264e-13)
0.0315987           	(-1.267130438392e+02 2.076169758325e+03 -1.832569057666e-13)	(-1.402273116441e+02 2.075167261551e+03 1.052867906975e-17)	(1.351426780484e+01 1.002496774513e+00 -1.832674344457e-13)
0.0318441           	(-1.276400762249e+02 2.076983305487e+03 2.870950154268e-13)	(-1.411421734092e+02 2.075979398210e+03 -3.152845755951e-18)	(1.350209718429e+01 1.003907276962e+00 2.870981682726e-13)
0.0320895           	(-1.276194618702e+02 2.084636497333e+03 2.456619311367e-14)	(-1.411096330458e+02 2.083631265174e+03 -6.234267055462e-18)	(1.349017117562e+01 1.005232158140e+00 2.457242738073e-14)
0.032335            	(-1.284830536970e+02 2.088140287425e+03 4.792465685255e-14)	(-1.419612985022e+02 2.087133621807e+03 -1.189684976645e-17)	(1.347824480522e+01 1.006665618245e+00 4.793655370232e-14)
0.0325804           	(-1.290497294723e+02 2.093327997962e+03 2.260598620153e-14)	(-1.425160303269e+02 2.092319994257e+03 -5.917000905815e-18)	(1.346630085456e+01 1.008003704748e+00 2.261190320244e-14)
0.0328258           	(-1.295785069310e+02 2.097476462887e+03 2.111714856070e-14)	(-1.430329578079e+02 2.096467105987e+03 1.155094819010e-17)	(1.345445087689e+01 1.009356899982e+00 2.110559761251e-14)
0.0330712           	(-1.300760010488e+02 2.102258700387e+03 4.876634908954e-14)	(-1.435188103728e+02 2.101247991320e+03 -5.433917523582e-18)	(1.344280932403e+01 1.010709066881e+00 4.877178300707e-14)
0.0333166           	(-1.307016988430e+02 2.101785149043e+03 1.895485730980e-14)	(-1.441329679538e+02 2.100773197064e+03 -1.370057573920e-17)	(1.343126911080e+01 1.011951978625e+00 1.896855788553e-14)