/*--------------------------------*- C++ -*----------------------------------*\
  =========                 |
  \\      /  F ield         | OpenFOAM: The Open Source CFD Toolbox
   \\    /   O peration     | Website:  https://openfoam.org
    \\  /    A nd           | Version:  6
     \\/     M anipulation  |
\*---------------------------------------------------------------------------*/
FoamFile
{
    version     2.0;
    format      ascii;
    class       volVectorField;
    location    "0.261799";
    object      H;
}
// * * * * * * * * * * * * * * * * * * * * * * * * * * * * * * * * * * * * * //

dimensions      [0 1 -2 0 0 0 0];

internalField   nonuniform List<vector> 
43264
(
(331376.676616 46466.2593966 0)
(331535.288703 46372.0368529 0)
(331710.745571 46343.5456508 0)
(331888.93695 46341.6151707 0)
(332071.302646 46340.729655 0)
(332258.894047 46340.2729618 0)
(332452.749935 46342.0448392 0)
(332653.429686 46345.7922594 0)
(332862.053077 46350.264673 0)
(333080.231587 46355.9299126 0)
(333309.21011 46364.7373098 0)
(333549.327664 46379.0230698 0)
(333799.810626 46400.281339 0)
(334059.161359 46428.495092 0)
(334325.813455 46462.152413 0)
(334598.791826 46498.8848031 0)
(334878.058202 46536.3611603 0)
(335164.459594 46573.0320198 0)
(335459.364441 46608.4576985 0)
(335764.193186 46643.1883477 0)
(336080.038491 46678.347251 0)
(336407.487819 46715.1409819 0)
(336746.654424 46754.4826407 0)
(337097.347548 46796.8179403 0)
(337459.286033 46842.1455975 0)
(337832.276595 46890.1618446 0)
(338216.315437 46940.4433289 0)
(338611.60997 46992.6015787 0)
(339018.542104 47046.375556 0)
(339437.603401 47101.6596273 0)
(339869.32885 47158.4836819 0)
(340314.245993 47216.9686383 0)
(340772.846006 47277.2779373 0)
(341245.574752 47339.578157 0)
(341732.838835 47404.0144515 0)
(342235.018657 47470.7001383 0)
(342752.485046 47539.7173503 0)
(343285.612029 47611.1233802 0)
(343834.790284 47684.9601288 0)
(344400.430147 47761.2616976 0)
(344982.972974 47840.0624303 0)
(345582.880311 47921.3989276 0)
(346200.655532 48005.3164208 0)
(346836.805632 48091.8631399 0)
(347491.904856 48181.1016495 0)
(348166.479603 48273.0890421 0)
(348861.206868 48367.9116221 0)
(349577.985047 48465.8110027 0)
(358944.796709 49763.03313 0)
(358949.922632 49762.6401438 0)
(358951.986685 49761.7966325 0)
(358954.050933 49760.926364 0)
(358956.147988 49760.0319822 0)
(358958.269155 49759.1171347 0)
(358960.423641 49758.1851275 0)
(358962.617636 49757.2373531 0)
(358964.854984 49756.2734135 0)
(358967.139641 49755.2927154 0)
(358969.474572 49754.2962978 0)
(358971.861722 49753.2878214 0)
(358974.301982 49752.2738912 0)
(358976.794952 49751.2635292 0)
(358979.338782 49750.2662011 0)
(358981.930216 49749.2888662 0)
(358984.564849 49748.333793 0)
(358987.237692 49747.3986159 0)
(358989.943824 49746.4784691 0)
(358992.678854 49745.5687139 0)
(358995.439183 49744.6668174 0)
(358998.222088 49743.7727961 0)
(359001.025647 49742.8884673 0)
(359003.848679 49742.0161467 0)
(359006.690756 49741.1574425 0)
(359009.552231 49740.3126151 0)
(359012.434315 49739.4806873 0)
(359015.33915 49738.6601197 0)
(359018.269737 49737.849627 0)
(359021.229789 49737.0487646 0)
(359024.223535 49736.2581245 0)
(359027.255435 49735.4791959 0)
(359030.32993 49734.7140643 0)
(359033.451253 49733.9650917 0)
(359036.623231 49733.2346389 0)
(359039.849162 49732.5248711 0)
(359043.131777 49731.8376565 0)
(359046.473181 49731.1745347 0)
(359049.874859 49730.5367495 0)
(359053.337739 49729.925321 0)
(359056.86221 49729.3411288 0)
(359060.448203 49728.785011 0)
(359064.095246 49728.2578477 0)
(359067.802525 49727.7606038 0)
(359071.568932 49727.2943025 0)
(359075.393117 49726.8599234 0)
(359079.273548 49726.4582531 0)
(359083.208576 49726.0897416 0)
(359087.196526 49725.754423 0)
(359091.235776 49725.4519387 0)
(359095.324837 49725.1816727 0)
(359099.462408 49724.9429698 0)
(359103.647393 49724.7353762 0)
(359107.87887 49724.5588284 0)
(359112.156041 49724.4137228 0)
(359116.478136 49724.3008308 0)
(359120.844344 49724.2210817 0)
(359125.253765 49724.1752838 0)
(359129.705414 49724.1638838 0)
(359134.19824 49724.1868478 0)
(359138.731235 49724.2437371 0)
(359143.303479 49724.3338672 0)
(359147.914177 49724.456871 0)
(359152.562635 49724.6125077 0)
(359157.248293 49724.801009 0)
(359161.970614 49725.0234408 0)
(359166.728958 49725.2812291 0)
(359171.522469 49725.5759159 0)
(359176.350073 49725.9088717 0)
(359181.210495 49726.2810786 0)
(359186.102278 49726.6930408 0)
(359191.023844 49727.1448382 0)
(359195.973586 49727.6362733 0)
(359200.949879 49728.1670302 0)
(359205.951102 49728.7367928 0)
(359210.975669 49729.3452939 0)
(359216.022001 49729.9922957 0)
(359221.088525 49730.6775516 0)
(359226.173711 49731.4007875 0)
(359231.276049 49732.1617074 0)
(359236.394057 49732.9600285 0)
(359241.5263 49733.7955202 0)
(359246.671355 49734.6680106 0)
(359251.827788 49735.5773601 0)
(359256.994181 49736.5234074 0)
(359262.169097 49737.5058989 0)
(359267.3511 49738.5244421 0)
(359272.538818 49739.5785059 0)
(359277.73094 49740.6674645 0)
(359282.926247 49741.7906863 0)
(359288.123645 49742.9476408 0)
(359293.32212 49744.1379796 0)
(359298.520696 49745.3615744 0)
(359303.718415 49746.6184988 0)
(359308.914251 49747.9089484 0)
(359314.107074 49749.2331337 0)
(359319.295665 49750.5911775 0)
(359324.478696 49751.9830322 0)
(359329.654762 49753.4084459 0)
(359334.822457 49754.8669796 0)
(359339.98038 49756.3580499 0)
(359345.127175 49757.8809933 0)
(359350.261578 49759.4351321 0)
(359355.38239 49761.0198173 0)
(359360.488474 49762.6344543 0)
(359365.578771 49764.2785119 0)
(359370.65225 49765.9515076 0)
(359375.707896 49767.6529883 0)
(359380.744728 49769.3825118 0)
(359385.761763 49771.1396238 0)
(359390.758016 49772.9238438 0)
(359395.732529 49774.734662 0)
(359400.684352 49776.5715353 0)
(359405.612542 49778.4338902 0)
(359410.516198 49780.3211334 0)
(359415.394438 49782.2326533 0)
(359420.246395 49784.1678228 0)
(359425.071252 49786.1260038 0)
(359429.868207 49788.1065399 0)
(359434.636482 49790.1087516 0)
(359439.375346 49792.1319351 0)
(359444.084099 49794.1753538 0)
(359448.76207 49796.2382352 0)
(359453.40866 49798.3197752 0)
(359458.023314 49800.4191346 0)
(359462.605537 49802.5354424 0)
(359467.15492 49804.6678035 0)
(359471.671137 49806.8153012 0)
(359476.153913 49808.9770001 0)
(359480.603128 49811.1519619 0)
(359485.018641 49813.3392332 0)
(359489.400568 49815.5378695 0)
(359493.748743 49817.7468889 0)
(359498.063758 49819.9653451 0)
(359502.344866 49822.1921408 0)
(359506.594028 49824.4263426 0)
(359510.808129 49826.6665125 0)
(359514.993962 49828.9119449 0)
(359519.139361 49831.1602081 0)
(359523.269061 49833.4119639 0)
(359527.336857 49835.6612787 0)
(359531.433805 49837.9158336 0)
(359535.385504 49840.1514735 0)
(359530.741656 49841.2114696 0)
(337848.68304 46838.576628 0)
(337497.843974 46794.8080345 0)
(337159.008232 46752.9500419 0)
(336829.987887 46712.9429241 0)
(336510.729544 46674.7093061 0)
(336200.78869 46638.1914817 0)
(335899.881005 46603.3074606 0)
(335607.678814 46570.0129533 0)
(335323.883598 46538.2759016 0)
(335048.194394 46508.0592342 0)
(334780.321824 46479.3167515 0)
(334519.984764 46451.9994511 0)
(334266.913413 46426.0576674 0)
(334020.849005 46401.4435347 0)
(333781.546042 46378.1156862 0)
(333548.769642 46356.0437097 0)
(333322.293456 46335.2055484 0)
(333101.890393 46315.57857 0)
(332887.33527 46297.1261681 0)
(332678.40355 46279.7953083 0)
(332474.89451 46263.5224363 0)
(332276.623328 46248.2541245 0)
(332083.442014 46233.9493649 0)
(331895.192091 46220.5857838 0)
(331711.747669 46208.1313339 0)
(331532.940154 46196.5606746 0)
(331358.676207 46185.8204825 0)
(331188.783934 46175.8899343 0)
(331023.242215 46166.7050569 0)
(330861.847413 46158.2767181 0)
(330704.677723 46150.5149271 0)
(330551.427376 46143.4818442 0)
(330402.345841 46137.0217126 0)
(330256.921862 46131.2999856 0)
(330115.72507 46126.0246435 0)
(329977.844922 46121.5689927 0)
(329844.428577 46117.3569419 0)
(329713.814273 46114.1752929 0)
(329588.175825 46110.8686777 0)
(329464.513053 46109.0488583 0)
(329346.767641 46106.3875424 0)
(329229.70742 46106.1495175 0)
(329120.091978 46103.6068942 0)
(329009.436001 46105.420264 0)
(328908.110581 46101.7113529 0)
(328804.88749 46106.7164907 0)
(328710.722864 46097.7505999 0)
(328621.790138 46110.3238167 0)
(331432.022942 46636.9098631 0)
(331635.488486 46737.818872 0)
(331825.27664 46806.21375 0)
(332023.857608 46867.4860046 0)
(332224.731133 46927.6230756 0)
(332430.292804 46986.0019939 0)
(332639.099207 47042.0823291 0)
(332852.013878 47095.7316975 0)
(333068.838877 47146.0303646 0)
(333289.975589 47192.1112588 0)
(333516.041003 47234.2282402 0)
(333748.107306 47274.0774656 0)
(333987.279079 47314.1473951 0)
(334234.439048 47356.6177941 0)
(334490.053118 47402.4421354 0)
(334754.225806 47451.0870141 0)
(335026.888506 47500.9836045 0)
(335308.023661 47550.3771187 0)
(335597.805578 47598.1201858 0)
(335896.620458 47644.0742245 0)
(336204.988294 47689.0324347 0)
(336523.448429 47734.3036216 0)
(336852.466881 47781.1993628 0)
(337192.397372 47830.6388579 0)
(337543.496154 47882.9797063 0)
(337905.970221 47938.0685211 0)
(338280.032239 47995.4307641 0)
(338665.941951 48054.4988824 0)
(339064.024774 48114.7992334 0)
(339474.668839 48176.0582143 0)
(339898.307742 48238.2257514 0)
(340335.398111 48301.4383269 0)
(340786.399077 48365.9519764 0)
(341251.758318 48432.0719676 0)
(341731.905219 48500.096413 0)
(342227.251442 48570.2806952 0)
(342738.194992 48642.8221068 0)
(343265.128971 48717.8594552 0)
(343808.447589 48795.4819432 0)
(344368.557715 48875.7413564 0)
(344945.878874 48958.6651405 0)
(345540.859435 49044.2666522 0)
(346153.960491 49132.55505 0)
(346785.691515 49223.5399308 0)
(347436.5519 49317.2394686 0)
(348107.134096 49413.6783862 0)
(348797.940238 49512.8998397 0)
(349511.055769 49615.1428068 0)
(358869.47875 50944.5320362 0)
(358871.398797 50945.4109987 0)
(358870.607757 50945.80727 0)
(358869.920621 50946.1245227 0)
(358869.321629 50946.364831 0)
(358868.829629 50946.5335636 0)
(358868.448208 50946.6398968 0)
(358868.181388 50946.6954578 0)
(358868.033151 50946.7126969 0)
(358868.005102 50946.7041572 0)
(358868.097047 50946.6822776 0)
(358868.306894 50946.659077 0)
(358868.63071 50946.6460632 0)
(358869.062977 50946.6548071 0)
(358869.596878 50946.6975226 0)
(358870.224537 50946.7864461 0)
(358870.937128 50946.9317625 0)
(358871.725018 50947.1391831 0)
(358872.578074 50947.4085573 0)
(358873.486084 50947.734076 0)
(358874.439328 50948.1056923 0)
(358875.42917 50948.5109563 0)
(358876.448511 50948.9365709 0)
(358877.4921 50949.3693233 0)
(358878.556716 50949.796385 0)
(358879.641144 50950.2052446 0)
(358880.746087 50950.5836888 0)
(358881.874053 50950.9201163 0)
(358883.029152 50951.2041809 0)
(358884.21688 50951.4275544 0)
(358885.44389 50951.5845392 0)
(358886.71767 50951.6723584 0)
(358888.046203 50951.691118 0)
(358889.437669 50951.6435127 0)
(358890.900082 50951.5343528 0)
(358892.441006 50951.3700074 0)
(358894.067343 50951.1578294 0)
(358895.785123 50950.9056033 0)
(358897.599391 50950.6210598 0)
(358899.514191 50950.311483 0)
(358901.532538 50949.9834188 0)
(358903.656513 50949.6425169 0)
(358905.887357 50949.2934889 0)
(358908.225608 50948.9401509 0)
(358910.671244 50948.5854942 0)
(358913.22383 50948.2317301 0)
(358915.882644 50947.8802863 0)
(358918.646786 50947.5317652 0)
(358921.515269 50947.1859082 0)
(358924.487085 50946.8416141 0)
(358927.561264 50946.4970626 0)
(358930.736923 50946.1499651 0)
(358934.013302 50945.7979265 0)
(358937.389795 50945.4388536 0)
(358940.865962 50945.0713019 0)
(358944.44151 50944.6946485 0)
(358948.116254 50944.3090228 0)
(358951.89006 50943.9150056 0)
(358955.762791 50943.5131938 0)
(358959.734221 50943.103774 0)
(358963.804055 50942.6862831 0)
(358967.971907 50942.2595534 0)
(358972.237304 50941.82221 0)
(358976.599791 50941.3726907 0)
(358981.05892 50940.9098256 0)
(358985.614293 50940.4335028 0)
(358990.265604 50939.9445182 0)
(358995.01257 50939.444415 0)
(358999.854881 50938.9351281 0)
(359004.79218 50938.4185698 0)
(359009.823988 50937.8962893 0)
(359014.94968 50937.3693139 0)
(359020.168517 50936.8381806 0)
(359025.479627 50936.3030812 0)
(359030.882032 50935.7640334 0)
(359036.374696 50935.2209988 0)
(359041.956518 50934.6739081 0)
(359047.626337 50934.122635 0)
(359053.382973 50933.5669707 0)
(359059.225206 50933.0066328 0)
(359065.151782 50932.4413294 0)
(359071.161452 50931.870854 0)
(359077.252945 50931.2951512 0)
(359083.424964 50930.7143217 0)
(359089.676209 50930.1285481 0)
(359096.005335 50929.5379466 0)
(359102.410947 50928.9424061 0)
(359108.891633 50928.3414802 0)
(359115.445947 50927.7343748 0)
(359122.072436 50927.120067 0)
(359128.769689 50926.4975342 0)
(359135.536326 50925.8660164 0)
(359142.371002 50925.2252398 0)
(359149.272417 50924.5755276 0)
(359156.239261 50923.9177493 0)
(359163.270172 50923.253135 0)
(359170.363739 50922.5830137 0)
(359177.518449 50921.9085415 0)
(359184.732686 50921.2305045 0)
(359192.00477 50920.5492361 0)
(359199.332951 50919.8646411 0)
(359206.715435 50919.1763088 0)
(359214.150433 50918.483672 0)
(359221.636153 50917.7861532 0)
(359229.170801 50917.0832794 0)
(359236.752612 50916.3747513 0)
(359244.379815 50915.6604536 0)
(359252.050622 50914.9404312 0)
(359259.763248 50914.2148468 0)
(359267.515874 50913.4839221 0)
(359275.306638 50912.7478894 0)
(359283.133665 50912.0069605 0)
(359290.995032 50911.2613057 0)
(359298.888774 50910.5110533 0)
(359306.812912 50909.756306 0)
(359314.765426 50908.9971539 0)
(359322.744258 50908.2336885 0)
(359330.747336 50907.4660141 0)
(359338.772551 50906.6942392 0)
(359346.817751 50905.9184642 0)
(359354.880773 50905.1387674 0)
(359362.959413 50904.3551816 0)
(359371.051431 50903.5676779 0)
(359379.154577 50902.7761564 0)
(359387.266576 50901.9804342 0)
(359395.385124 50901.1802417 0)
(359403.507934 50900.3752325 0)
(359411.6327 50899.5649964 0)
(359419.757134 50898.7490928 0)
(359427.878936 50897.9271071 0)
(359435.995878 50897.0987056 0)
(359444.10557 50896.2637014 0)
(359452.2059 50895.4220899 0)
(359460.294149 50894.5740704 0)
(359468.368573 50893.7199703 0)
(359476.42528 50892.860237 0)
(359484.464257 50891.9951938 0)
(359492.477559 50891.125177 0)
(359500.472287 50890.2499776 0)
(359508.42593 50889.3696971 0)
(359516.373224 50888.4830533 0)
(359524.237203 50887.5905089 0)
(359532.157904 50886.6893873 0)
(359531.520811 50884.600081 0)
(337860.823754 47813.7102353 0)
(337523.231301 47760.4518113 0)
(337196.802995 47708.6449228 0)
(336880.812976 47658.104062 0)
(336574.687126 47608.8011653 0)
(336278.188963 47560.7233499 0)
(335990.955246 47513.827134 0)
(335712.662175 47468.0584921 0)
(335442.971431 47423.3660242 0)
(335181.550629 47379.7046698 0)
(334928.065467 47337.030656 0)
(334682.181923 47295.3006497 0)
(334443.565436 47254.4710668 0)
(334211.881152 47214.4960014 0)
(333986.796363 47175.3271584 0)
(333767.983758 47136.9195718 0)
(333555.126388 47099.2409437 0)
(333347.915209 47062.2745129 0)
(333146.047255 47026.0085514 0)
(332949.217823 46990.4173293 0)
(332757.131377 46955.4541772 0)
(332569.503203 46921.0635296 0)
(332386.083046 46887.2053395 0)
(332206.635127 46853.8611624 0)
(332030.96276 46821.0281477 0)
(331858.860581 46788.6944244 0)
(331690.180931 46756.8440949 0)
(331524.748907 46725.4464842 0)
(331362.497309 46694.4923532 0)
(331203.27595 46663.9582942 0)
(331047.110456 46633.8621883 0)
(330893.819045 46604.1694305 0)
(330743.546359 46574.9188696 0)
(330596.022033 46546.0330765 0)
(330451.612231 46517.5997439 0)
(330309.859506 46489.46932 0)
(330171.500206 46461.8400503 0)
(330035.656362 46434.4173941 0)
(329903.687598 46407.6093785 0)
(329773.892015 46380.8350618 0)
(329648.748917 46354.889779 0)
(329525.032832 46328.6851806 0)
(329407.251365 46303.6543328 0)
(329289.379106 46277.996665 0)
(329179.630801 46253.7807231 0)
(329066.634758 46228.974462 0)
(328965.916876 46205.0682379 0)
(328853.583128 46177.5487925 0)
(331436.535434 46523.7257758 0)
(331602.842897 46479.3216989 0)
(331779.262844 46472.4222116 0)
(331960.742274 46479.1554171 0)
(332147.884766 46488.6275483 0)
(332341.5222 46500.0701537 0)
(332541.828843 46514.2588759 0)
(332749.055698 46530.6532662 0)
(332963.099676 46548.0469653 0)
(333183.978079 46565.8632553 0)
(333411.650687 46584.5558923 0)
(333646.282256 46605.4674042 0)
(333888.189849 46630.2227609 0)
(334137.806173 46659.9475053 0)
(334395.518524 46694.6624792 0)
(334661.569674 46733.1845225 0)
(334936.031627 46773.5719162 0)
(335218.878698 46813.875851 0)
(335510.103103 46852.8340328 0)
(335809.817817 46890.2219302 0)
(336118.302471 46926.7745648 0)
(336435.985258 46963.7876499 0)
(336763.381113 47002.6104786 0)
(337101.019141 47044.2331337 0)
(337449.386902 47089.0835808 0)
(337808.905429 47137.044954 0)
(338179.933744 47187.6265671 0)
(338562.792477 47240.1932212 0)
(338957.793405 47294.1698737 0)
(339365.264406 47349.1734917 0)
(339785.564312 47405.0610847 0)
(340219.086867 47461.909647 0)
(340666.256474 47519.9558622 0)
(341127.519306 47579.5231168 0)
(341603.333888 47640.9558428 0)
(342094.162944 47704.5715974 0)
(342600.469121 47770.6331296 0)
(343122.712513 47839.3375854 0)
(343661.353339 47910.8177997 0)
(344216.852253 47985.1508211 0)
(344789.678757 48062.3696037 0)
(345380.307411 48142.4758351 0)
(345989.235039 48225.4517748 0)
(346616.960062 48311.2718342 0)
(347264.026017 48399.9114137 0)
(347930.950099 48491.3554811 0)
(348618.352812 48585.6072409 0)
(349328.017937 48682.8523298 0)
(358673.441483 49983.5571579 0)
(358674.139809 49982.1838963 0)
(358672.196831 49980.3158469 0)
(358670.372218 49978.3267239 0)
(358668.68878 49976.2200887 0)
(358667.138872 49974.0041369 0)
(358665.729573 49971.6926822 0)
(358664.465581 49969.3040862 0)
(358663.349861 49966.8603744 0)
(358662.385312 49964.3871551 0)
(358661.573731 49961.9132531 0)
(358660.915711 49959.4694712 0)
(358660.410592 49957.0868241 0)
(358660.056329 49954.7947348 0)
(358659.84953 49952.6192666 0)
(358659.785645 49950.5813143 0)
(358659.85917 49948.6949956 0)
(358660.06391 49946.9667198 0)
(358660.393263 49945.395158 0)
(358660.840433 49943.9719193 0)
(358661.398675 49942.6825764 0)
(358662.061581 49941.5077775 0)
(358662.823326 49940.4243296 0)
(358663.67893 49939.4062541 0)
(358664.624516 49938.4258339 0)
(358665.657452 49937.454699 0)
(358666.776447 49936.4650332 0)
(358667.981608 49935.4309006 0)
(358669.274369 49934.3295661 0)
(358670.657389 49933.1426285 0)
(358672.134441 49931.856801 0)
(358673.710202 49930.4642548 0)
(358675.390043 49928.9625632 0)
(358677.179838 49927.3543145 0)
(358679.085709 49925.6464677 0)
(358681.113799 49923.8495402 0)
(358683.270107 49921.9767017 0)
(358685.56028 49920.0428292 0)
(358687.989474 49918.0635913 0)
(358690.562284 49916.0546129 0)
(358693.282644 49914.0307511 0)
(358696.153833 49912.0055355 0)
(358699.178484 49909.9907799 0)
(358702.358631 49907.9963584 0)
(358705.695788 49906.0301196 0)
(358709.191035 49904.0979042 0)
(358712.845109 49902.2036401 0)
(358716.658489 49900.3495005 0)
(358720.631475 49898.5361156 0)
(358724.764239 49896.7628309 0)
(358729.056871 49895.0280104 0)
(358733.509412 49893.3293877 0)
(358738.121887 49891.6644568 0)
(358742.894326 49890.030879 0)
(358747.826793 49888.4268488 0)
(358752.919404 49886.8513444 0)
(358758.172327 49885.3041977 0)
(358763.585765 49883.785964 0)
(358769.159936 49882.2976296 0)
(358774.894992 49880.840244 0)
(358780.791023 49879.4146046 0)
(358786.847996 49878.0210682 0)
(358793.065723 49876.6595695 0)
(358799.443906 49875.3298153 0)
(358805.982173 49874.0315856 0)
(358812.68011 49872.7650605 0)
(358819.537332 49871.5310425 0)
(358826.553473 49870.3310018 0)
(358833.728185 49869.1669437 0)
(358841.061132 49868.0411504 0)
(358848.551923 49866.9558816 0)
(358856.200069 49865.9131375 0)
(358864.00499 49864.9145427 0)
(358871.965974 49863.9613394 0)
(358880.082186 49863.054457 0)
(358888.352712 49862.1946014 0)
(358896.776541 49861.3823088 0)
(358905.352574 49860.6179655 0)
(358914.079658 49859.9018141 0)
(358922.956559 49859.2339621 0)
(358931.981972 49858.6144272 0)
(358941.154558 49858.0432176 0)
(358950.472928 49857.5204083 0)
(358959.935651 49857.0461908 0)
(358969.541289 49856.62086 0)
(358979.288352 49856.2447194 0)
(358989.175287 49855.917935 0)
(358999.200485 49855.6403939 0)
(359009.362246 49855.4116182 0)
(359019.658773 49855.2307987 0)
(359030.088224 49855.0969618 0)
(359040.648705 49855.0092197 0)
(359051.338299 49854.9670386 0)
(359062.155123 49854.9704354 0)
(359073.097308 49855.0200238 0)
(359084.162992 49855.1169037 0)
(359095.350339 49855.2624294 0)
(359106.657478 49855.4579192 0)
(359118.082484 49855.7044016 0)
(359129.623384 49856.0024607 0)
(359141.27812 49856.352195 0)
(359153.044546 49856.7532877 0)
(359164.920467 49857.20515 0)
(359176.903621 49857.7070769 0)
(359188.991689 49858.2583878 0)
(359201.182339 49858.8585271 0)
(359213.473203 49859.5071063 0)
(359225.861882 49860.2039049 0)
(359238.345977 49860.948843 0)
(359250.923056 49861.741928 0)
(359263.590651 49862.583203 0)
(359276.346283 49863.4727059 0)
(359289.187428 49864.410435 0)
(359302.111518 49865.3963368 0)
(359315.115968 49866.4303122 0)
(359328.198148 49867.5122252 0)
(359341.355389 49868.6419163 0)
(359354.585014 49869.8192169 0)
(359367.88431 49871.0439446 0)
(359381.250534 49872.3158941 0)
(359394.68094 49873.6348246 0)
(359408.172751 49875.0004356 0)
(359421.723163 49876.4123452 0)
(359435.329368 49877.8700744 0)
(359448.988534 49879.3730233 0)
(359462.697803 49880.9204565 0)
(359476.454321 49882.5115024 0)
(359490.255232 49884.1451632 0)
(359504.097654 49885.8203596 0)
(359517.978775 49887.5360107 0)
(359531.895722 49889.2911364 0)
(359545.845783 49891.0849689 0)
(359559.826021 49892.917055 0)
(359573.834048 49894.7872892 0)
(359587.866464 49896.695903 0)
(359601.92189 49898.6433429 0)
(359615.99509 49900.6301756 0)
(359630.088268 49902.6568137 0)
(359644.189201 49904.7236222 0)
(359658.313576 49906.8303852 0)
(359672.422918 49908.9773229 0)
(359686.58355 49911.1629427 0)
(359700.658831 49913.3896764 0)
(359706.924284 49914.542815 0)
(338030.264481 46907.4992327 0)
(337705.236916 46863.7031315 0)
(337392.734224 46821.9289787 0)
(337090.825824 46782.0174023 0)
(336799.358813 46743.9643715 0)
(336517.883347 46707.7340163 0)
(336246.053664 46673.2884296 0)
(335983.478982 46640.5973784 0)
(335729.774925 46609.6334492 0)
(335484.543252 46580.3614391 0)
(335247.380129 46552.7375711 0)
(335017.873274 46526.713572 0)
(334795.603782 46502.2381731 0)
(334580.145784 46479.2556048 0)
(334371.069053 46457.7042132 0)
(334167.94055 46437.5196497 0)
(333970.330068 46418.6427336 0)
(333777.809473 46401.0251569 0)
(333589.956601 46384.6203082 0)
(333406.34777 46369.3630482 0)
(333226.571424 46355.1549149 0)
(333050.223894 46341.8781037 0)
(332876.943537 46329.4213579 0)
(332706.386591 46317.7033398 0)
(332538.274547 46306.6577638 0)
(332372.324419 46296.2230566 0)
(332208.349605 46286.3131364 0)
(332046.123927 46276.8498391 0)
(331885.593212 46267.7425463 0)
(331726.579615 46258.9582485 0)
(331569.191907 46250.4348763 0)
(331413.220724 46242.1932483 0)
(331258.979966 46234.1372506 0)
(331106.133148 46226.3259024 0)
(330955.357194 46218.5815315 0)
(330806.036072 46211.0900233 0)
(330659.441466 46203.5463104 0)
(330514.322079 46196.4005699 0)
(330372.917206 46189.0324322 0)
(330232.758023 46182.388287 0)
(330097.740076 46175.1375712 0)
(329963.277698 46169.2607531 0)
(329836.029869 46161.8809018 0)
(329707.968676 46157.2461237 0)
(329590.121178 46148.9715208 0)
(329469.200289 46146.6153079 0)
(329363.047812 46135.2009897 0)
(329249.203341 46138.8165809 0)
(331484.719941 46619.5265399 0)
(331684.120046 46691.853226 0)
(331874.837518 46751.3230806 0)
(332073.473406 46809.8395586 0)
(332274.138319 46866.6905715 0)
(332479.844685 46920.9493869 0)
(332689.486382 46973.0562446 0)
(332904.073464 47023.3857293 0)
(333123.425318 47071.2622424 0)
(333347.836551 47115.9386735 0)
(333577.524347 47157.4663667 0)
(333813.058911 47197.0257251 0)
(334055.162504 47236.5667142 0)
(334304.642341 47278.0476015 0)
(334562.174105 47322.6553535 0)
(334828.182959 47370.4074347 0)
(335102.806342 47420.2926298 0)
(335385.976833 47470.8248443 0)
(335677.56591 47520.706347 0)
(335977.530374 47569.3041648 0)
(336286.005409 47616.7849515 0)
(336603.323593 47663.9301837 0)
(336929.969975 47711.7752229 0)
(337266.504104 47761.2454392 0)
(337613.482316 47812.9155078 0)
(337971.404282 47866.9378131 0)
(338340.692523 47923.1146668 0)
(338721.701007 47981.0503962 0)
(339114.741427 48040.3153622 0)
(339520.114689 48100.573223 0)
(339938.137806 48161.6500175 0)
(340369.161285 48223.5470308 0)
(340813.575915 48286.4132744 0)
(341271.811362 48350.4974563 0)
(341744.329174 48416.096539 0)
(342231.614432 48483.5119525 0)
(342734.166685 48553.0185175 0)
(343252.494466 48624.8463846 0)
(343787.109091 48699.174023 0)
(344338.525769 48776.1289412 0)
(344907.257867 48855.793792 0)
(345493.827294 48938.2148656 0)
(346098.750324 49023.4127401 0)
(346722.567647 49111.3918013 0)
(347365.798773 49202.1518299 0)
(348029.028371 49295.6935276 0)
(348712.76155 49392.0337281 0)
(349418.913138 49491.3632087 0)
(358763.425302 50814.2077082 0)
(358760.688492 50813.0524493 0)
(358755.53241 50811.3922632 0)
(358750.520337 50809.5915865 0)
(358745.636731 50807.652581 0)
(358740.891601 50805.5834217 0)
(358736.285379 50803.3985825 0)
(358731.819595 50801.1173074 0)
(358727.497183 50798.7621276 0)
(358723.321022 50796.3583861 0)
(358719.294408 50793.9339886 0)
(358715.420985 50791.5186342 0)
(358711.704627 50789.1428756 0)
(358708.14931 50786.8373456 0)
(358704.758921 50784.6316352 0)
(358701.537055 50782.5521846 0)
(358698.486752 50780.6194838 0)
(358695.61031 50778.8457103 0)
(358692.909222 50777.23373 0)
(358690.384109 50775.7775373 0)
(358688.03475 50774.4636019 0)
(358685.860158 50773.2724843 0)
(358683.858608 50772.1803036 0)
(358682.027726 50771.1599182 0)
(358680.364618 50770.181866 0)
(358678.865972 50769.2152428 0)
(358677.528212 50768.2287583 0)
(358676.347708 50767.1920773 0)
(358675.320927 50766.0773319 0)
(358674.4446 50764.8605644 0)
(358673.715905 50763.5228499 0)
(358673.132546 50762.0509533 0)
(358672.692831 50760.4375229 0)
(358672.395746 50758.6808866 0)
(358672.240926 50756.7845216 0)
(358672.228632 50754.7562956 0)
(358672.359724 50752.6075602 0)
(358672.635562 50750.3521611 0)
(358673.057907 50748.0054462 0)
(358673.628866 50745.58333 0)
(358674.350743 50743.1014548 0)
(358675.225974 50740.5745119 0)
(358676.25703 50738.0157334 0)
(358677.446342 50735.4365581 0)
(358678.796241 50732.8464438 0)
(358680.30891 50730.252798 0)
(358681.986352 50727.6609991 0)
(358683.830366 50725.0744992 0)
(358685.842548 50722.4949984 0)
(358688.024281 50719.9226862 0)
(358690.376753 50717.3565441 0)
(358692.900977 50714.7947093 0)
(358695.597808 50712.2348867 0)
(358698.467979 50709.6747834 0)
(358701.512129 50707.1125106 0)
(358704.730827 50704.5468804 0)
(358708.124596 50701.9775322 0)
(358711.693919 50699.4048634 0)
(358715.439249 50696.829791 0)
(358719.360975 50694.2534157 0)
(358723.45945 50691.6767057 0)
(358727.734965 50689.1002685 0)
(358732.187712 50686.5242966 0)
(358736.817806 50683.948687 0)
(358741.625338 50681.3732846 0)
(358746.610363 50678.7981866 0)
(358751.772933 50676.2240057 0)
(358757.113085 50673.6519957 0)
(358762.630843 50671.0840173 0)
(358768.326237 50668.522361 0)
(358774.199249 50665.9694819 0)
(358780.249797 50663.4277466 0)
(358786.477747 50660.8992626 0)
(358792.882877 50658.3858054 0)
(358799.464874 50655.8888402 0)
(358806.223368 50653.4095917 0)
(358813.157902 50650.9491035 0)
(358820.267934 50648.5082719 0)
(358827.552868 50646.0878562 0)
(358835.012021 50643.6884727 0)
(358842.644629 50641.3106141 0)
(358850.449881 50638.9547056 0)
(358858.426901 50636.6211802 0)
(358866.57475 50634.3105557 0)
(358874.892465 50632.0234758 0)
(358883.379018 50629.7606749 0)
(358892.033303 50627.5228741 0)
(358900.854155 50625.310642 0)
(358909.840299 50623.1242636 0)
(358918.990348 50620.9636919 0)
(358928.302834 50618.8286188 0)
(358937.776203 50616.7186488 0)
(358947.408837 50614.6335355 0)
(358957.19911 50612.5734036 0)
(358967.145386 50610.5388686 0)
(358977.246023 50608.5310275 0)
(358987.499403 50606.5513258 0)
(358997.903886 50604.6013373 0)
(359008.457789 50602.6825385 0)
(359019.15939 50600.7961393 0)
(359030.00688 50598.9429938 0)
(359040.998351 50597.1236089 0)
(359052.131819 50595.3382249 0)
(359063.405199 50593.5869233 0)
(359074.816315 50591.869739 0)
(359086.362935 50590.1867539 0)
(359098.042755 50588.5381495 0)
(359109.853408 50586.9242297 0)
(359121.792497 50585.3454207 0)
(359133.857567 50583.8022431 0)
(359146.046107 50582.2952784 0)
(359158.355572 50580.8251362 0)
(359170.783354 50579.3924181 0)
(359183.326776 50577.9976953 0)
(359195.98312 50576.6415002 0)
(359208.7496 50575.3243213 0)
(359221.623362 50574.0466076 0)
(359234.601519 50572.8087784 0)
(359247.681119 50571.6112234 0)
(359260.859152 50570.4542996 0)
(359274.132577 50569.3383287 0)
(359287.498294 50568.2635796 0)
(359300.953137 50567.230252 0)
(359314.493906 50566.2384604 0)
(359328.117329 50565.2882062 0)
(359341.820062 50564.3793541 0)
(359355.598717 50563.5116179 0)
(359369.449823 50562.6845534 0)
(359383.369854 50561.8975804 0)
(359397.355214 50561.1500435 0)
(359411.402313 50560.4412909 0)
(359425.507407 50559.7707818 0)
(359439.666986 50559.1381756 0)
(359453.877096 50558.5434024 0)
(359468.134659 50557.9866335 0)
(359482.434967 50557.468283 0)
(359496.7766 50556.988782 0)
(359511.151811 50556.5486754 0)
(359525.56518 50556.1481131 0)
(359539.997407 50555.7875805 0)
(359554.475432 50555.4665606 0)
(359568.93629 50555.1856516 0)
(359583.491497 50554.9453579 0)
(359590.268578 50553.6631672 0)
(337931.751275 47504.764803 0)
(337610.967586 47454.0597611 0)
(337302.133513 47405.218311 0)
(337004.40815 47358.1099301 0)
(336717.256381 47312.739137 0)
(336440.385484 47269.1092876 0)
(336173.403075 47227.1960358 0)
(335915.938367 47186.9695265 0)
(335667.599128 47148.4018173 0)
(335427.986054 47111.4635824 0)