/*--------------------------------*- C++ -*----------------------------------*\
  =========                 |
  \\      /  F ield         | OpenFOAM: The Open Source CFD Toolbox
   \\    /   O peration     | Website:  https://openfoam.org
    \\  /    A nd           | Version:  6
     \\/     M anipulation  |
\*---------------------------------------------------------------------------*/
FoamFile
{
    version     2.0;
    format      ascii;
    class       volVectorField;
    location    "0.261799";
    object      HbyA;
}
// * * * * * * * * * * * * * * * * * * * * * * * * * * * * * * * * * * * * * //

dimensions      [0 1 -1 0 0 0 0];

internalField   nonuniform List<vector> 
43264
(
(59.4128467542 8.33098085526 0)
(59.4083676326 8.30948350628 0)
(59.405996208 8.29965424383 0)
(59.4030917949 8.29444706776 0)
(59.3999037346 8.28928865146 0)
(59.3965878073 8.28406444885 0)
(59.3932952697 8.27909154932 0)
(59.3900911304 8.27431969781 0)
(59.3871386475 8.26952056877 0)
(59.3846845757 8.26477231313 0)
(59.3829079142 8.26041658201 0)
(59.3818269379 8.25686305762 0)
(59.3812650946 8.25437079034 0)
(59.3809208806 8.25292975787 0)
(59.3804828264 8.25226450489 0)
(59.3797437411 8.25194809816 0)
(59.3786589352 8.25156097792 0)
(59.3773351898 8.25082270474 0)
(59.3759661875 8.2496495901 0)
(59.3747508338 8.24813289338 0)
(59.3738282003 8.24646468979 0)
(59.3732480716 8.24485112446 0)
(59.3729774831 8.24344595141 0)
(59.3729307988 8.24232006982 0)
(59.3730066573 8.24146537823 0)
(59.3731182858 8.24082042635 0)
(59.3732103608 8.24030269678 0)
(59.3732621133 8.2398357551 0)
(59.3732805725 8.23936542961 0)
(59.373289217 8.23886461497 0)
(59.3733166072 8.23832968933 0)
(59.3733877832 8.23777265254 0)
(59.3735194743 8.23721260423 0)
(59.3737187031 8.23666885368 0)
(59.3739838977 8.23615664308 0)
(59.3743071269 8.2356853504 0)
(59.3746768882 8.23525862008 0)
(59.3750801879 8.23487547826 0)
(59.3755047232 8.23453197687 0)
(59.3759392603 8.23422250762 0)
(59.3763754609 8.23394118395 0)
(59.3768058976 8.23368217749 0)
(59.3772276648 8.23344079996 0)
(59.3776357202 8.23321252028 0)
(59.3780336936 8.23299489041 0)
(59.3784141132 8.23278414088 0)
(59.3787921932 8.23258108523 0)
(59.3791447499 8.23237883978 0)
(59.379469129 8.2321920156 0)
(59.3797907489 8.23205403468 0)
(59.3801028147 8.23191042225 0)
(59.3804147699 8.23176236387 0)
(59.3807319003 8.23161028178 0)
(59.3810526658 8.23145476529 0)
(59.3813784944 8.23129634816 0)
(59.3817103277 8.23113524931 0)
(59.3820487336 8.23097139349 0)
(59.3823943062 8.23080467421 0)
(59.3827474892 8.23063525687 0)
(59.3831085716 8.23046374253 0)
(59.3834776805 8.23029122101 0)
(59.3838547475 8.23011918449 0)
(59.3842394862 8.22994920156 0)
(59.3846313944 8.22978242854 0)
(59.3850297997 8.22961924845 0)
(59.3854339462 8.22945927966 0)
(59.3858430891 8.22930172677 0)
(59.3862565681 8.22914583161 0)
(59.3866738451 8.22899118312 0)
(59.3870945123 8.22883778994 0)
(59.387518284 8.22868595716 0)
(59.3879449872 8.22853607097 0)
(59.3883745603 8.22838839866 0)
(59.3888070613 8.22824298325 0)
(59.3892426797 8.2280996616 0)
(59.3896817432 8.22795817536 0)
(59.3901247105 8.22781830669 0)
(59.3905721484 8.22767997545 0)
(59.3910246974 8.22754327145 0)
(59.3914830332 8.22740843234 0)
(59.3919478281 8.22727579456 0)
(59.3924197191 8.22714574007 0)
(59.3928992822 8.22701865149 0)
(59.3933870145 8.22689488027 0)
(59.3938833237 8.22677472934 0)
(59.3943885243 8.22665844874 0)
(59.3949028385 8.22654624097 0)
(59.3954264017 8.22643827227 0)
(59.3959592703 8.22633468705 0)
(59.396501431 8.22623562371 0)
(59.3970528104 8.22614122842 0)
(59.3976132831 8.22605166213 0)
(59.39818268 8.22596709606 0)
(59.3987607958 8.22588769472 0)
(59.3993473977 8.2258135911 0)
(59.399942236 8.22574486283 0)
(59.4005450572 8.22568151881 0)
(59.4011556166 8.22562350297 0)
(59.4017736899 8.2255707165 0)
(59.4023990816 8.22552305368 0)
(59.4030316271 8.22548044178 0)
(59.4036711886 8.2254428723 0)
(59.4043176455 8.22541041243 0)
(59.404970882 8.22538319132 0)
(59.4056307754 8.22536136428 0)
(59.4062971889 8.2253450667 0)
(59.4069699726 8.22533437425 0)
(59.4076489687 8.22532928357 0)
(59.4083340239 8.22532972387 0)
(59.4090249995 8.22533558383 0)
(59.4097217778 8.22534680462 0)
(59.4104242574 8.22536334822 0)
(59.4111323506 8.22538525366 0)
(59.4118459766 8.22541269833 0)
(59.4125650365 8.22544591911 0)
(59.4132894004 8.22548517262 0)
(59.4140189061 8.22553068773 0)
(59.4147533583 8.225582629 0)
(59.415492536 8.22564108263 0)
(59.4162362015 8.22570606502 0)
(59.4169841104 8.22577754644 0)
(59.417736017 8.22585547785 0)
(59.4184916781 8.22593981035 0)
(59.4192508526 8.22603050269 0)
(59.420013302 8.22612751865 0)
(59.4207787903 8.22623082074 0)
(59.4215470847 8.22634036645 0)
(59.4223179577 8.22645610984 0)
(59.4230911865 8.22657800725 0)
(59.4238665536 8.22670602319 0)
(59.4246438436 8.22684013206 0)
(59.4254228417 8.22698031377 0)
(59.4262033318 8.22712654422 0)
(59.4269850968 8.22727878429 0)
(59.4277679216 8.22743697209 0)
(59.4285515974 8.22760102231 0)
(59.4293359266 8.22777083408 0)
(59.4301207272 8.22794630559 0)
(59.430905833 8.22812735112 0)
(59.4316910913 8.22831391511 0)
(59.4324763566 8.22850597852 0)
(59.4332614825 8.22870355517 0)
(59.4340463138 8.22890667941 0)
(59.4348306805 8.22911538839 0)
(59.4356143965 8.22932970452 0)
(59.4363972604 8.22954962247 0)
(59.4371790614 8.22977510351 0)
(59.437959585 8.23000607754 0)
(59.43873862 8.23024245085 0)
(59.4395159632 8.23048411661 0)
(59.4402914226 8.23073096507 0)
(59.4410648175 8.2309828913 0)
(59.4418359782 8.23123979943 0)
(59.4426047433 8.23150160354 0)
(59.4433709574 8.23176822589 0)
(59.4441344688 8.23203959374 0)
(59.4448951278 8.23231563569 0)
(59.4456527861 8.23259627853 0)
(59.4464072963 8.23288144493 0)
(59.4471585125 8.23317105228 0)
(59.447906291 8.23346501259 0)
(59.4486504909 8.23376323311 0)
(59.449390975 8.23406561729 0)
(59.4501276099 8.23437206572 0)
(59.4508602665 8.23468247659 0)
(59.4515888199 8.2349967458 0)
(59.4523131494 8.23531476637 0)
(59.4530331386 8.23563642769 0)
(59.4537486762 8.23596161458 0)
(59.4544596563 8.23629020662 0)
(59.4551659796 8.23662207761 0)
(59.4558675542 8.23695709554 0)
(59.4565642966 8.23729512274 0)
(59.4572561339 8.23763601639 0)
(59.4579430031 8.23797962907 0)
(59.4586248558 8.2383258099 0)
(59.4593016519 8.23867440492 0)
(59.4599733729 8.23902525909 0)
(59.4606399969 8.23937821495 0)
(59.4613015454 8.23973311654 0)
(59.4619579886 8.24008980114 0)
(59.4626094229 8.24044811206 0)
(59.4632557245 8.24080786769 0)
(59.4638972132 8.24116891305 0)
(59.4645333705 8.24153100986 0)
(59.4651653177 8.24189404105 0)
(59.465791036 8.24225760354 0)
(59.46641461 8.24262180585 0)
(59.4670283925 8.24298566592 0)
(59.4676474298 8.24335045216 0)
(59.4682428701 8.24371216857 0)
(59.4688719935 8.24408119104 0)
(59.4698858431 8.24477035121 0)
(59.4711842548 8.24580867842 0)
(59.472575108 8.24690506554 0)
(59.4739225224 8.24808374602 0)
(59.4752689258 8.24933841421 0)
(59.4765861063 8.25066598539 0)
(59.477872681 8.25205885564 0)
(59.4791180957 8.253515861 0)
(59.4803155266 8.25503780103 0)
(59.4814563402 8.25662439344 0)
(59.4825326198 8.25827354413 0)
(59.4835366043 8.25998246904 0)
(59.4844612739 8.26174807796 0)
(59.4853003323 8.26356741722 0)
(59.4860486433 8.26543851334 0)
(59.4867018043 8.26736117761 0)
(59.4872558164 8.26933655469 0)
(59.4877054918 8.27136554046 0)
(59.4880449639 8.27344639275 0)
(59.4882674802 8.27557428691 0)
(59.4883695418 8.27774236324 0)
(59.4883494884 8.27994541727 0)
(59.4882112858 8.28218032105 0)
(59.4879561134 8.28444715128 0)
(59.4875901523 8.28674413196 0)
(59.4871111152 8.28907057233 0)
(59.4865294244 8.29142064596 0)
(59.4858405965 8.29379423847 0)
(59.4850664686 8.29618337543 0)
(59.4841953214 8.29859341437 0)
(59.4832654288 8.3010114885 0)
(59.4822452872 8.30345198401 0)
(59.4812027071 8.30589000149 0)
(59.4800678244 8.30835834265 0)
(59.4789649408 8.31080737535 0)
(59.4777508852 8.31330719076 0)
(59.4766530538 8.31575676578 0)
(59.4753914105 8.31830061828 0)
(59.4743777889 8.32073303919 0)
(59.4730890591 8.32334731218 0)
(59.4722558081 8.32572578122 0)
(59.4709498777 8.32846017603 0)
(59.4704111852 8.33069911546 0)
(59.4691208351 8.3336479408 0)
(59.4689732756 8.3355239722 0)
(59.4679483945 8.33890231329 0)
(59.4680518222 8.33968359071 0)
(59.4686177517 8.344295186 0)
(59.417887485 8.36088992938 0)
(59.421309327 8.37432207616 0)
(59.421413258 8.38179477598 0)
(59.4220729324 8.38784053527 0)
(59.4221030193 8.39352941406 0)
(59.421906045 8.39874661351 0)
(59.4211935599 8.4033918027 0)
(59.4200896697 8.40743779171 0)
(59.4185294674 8.41071714764 0)
(59.4165521133 8.41307192929 0)
(59.4142298901 8.41454368103 0)
(59.4117110368 8.41542998577 0)
(59.4091468588 8.41616824105 0)
(59.4066497183 8.41713981704 0)
(59.4042606675 8.41850752404 0)
(59.4019595634 8.42017018682 0)
(59.399696785 8.42184349941 0)
(59.3974303799 8.4232109438 0)
(59.395148795 8.42406411427 0)
(59.3928734647 8.42437315356 0)
(59.3906454258 8.42427243689 0)
(59.3885064224 8.4239865318 0)
(59.386484041 8.42373950737 0)
(59.3845858787 8.42368541827 0)
(59.3828025011 8.42387887625 0)
(59.3811156071 8.4242843859 0)
(59.3795069975 8.42481005469 0)
(59.3779650793 8.42534782241 0)
(59.3764875282 8.42580624267 0)
(59.3750804386 8.42612894055 0)
(59.3737552354 8.42629852376 0)
(59.3725248699 8.42632992112 0)
(59.3714004386 8.42625853074 0)
(59.3703889512 8.42612786701 0)
(59.3694922886 8.42597971102 0)
(59.3687073706 8.4258479398 0)
(59.3680268579 8.42575590196 0)
(59.3674406034 8.42571640237 0)
(59.3669365849 8.42573328976 0)
(59.3665027751 8.42580360448 0)
(59.366126998 8.42591986277 0)
(59.3657995842 8.42607183877 0)
(59.3655104568 8.42624826956 0)
(59.3652551364 8.42643764784 0)
(59.3650245885 8.42662960382 0)
(59.364822786 8.42681454437 0)
(59.3646352469 8.42698565535 0)
(59.364483792 8.42713640205 0)
(59.364346803 8.42726686608 0)
(59.3642070139 8.42734733129 0)
(59.3640880523 8.42741457033 0)
(59.3639851031 8.42746857131 0)
(59.3638954677 8.42750966442 0)
(59.3638221692 8.42753872421 0)
(59.3637657028 8.4275572547 0)
(59.3637266481 8.42756716711 0)
(59.3637055977 8.42757051153 0)
(59.3637027698 8.4275693561 0)
(59.3637181109 8.42756575548 0)
(59.3637512807 8.42756169863 0)
(59.363801656 8.42755909301 0)
(59.3638683744 8.42755985983 0)
(59.3639503793 8.42756602965 0)
(59.3640464554 8.42757963897 0)
(59.3641552518 8.42760238809 0)
(59.3642753067 8.42763524043 0)
(59.3644050883 8.4276781916 0)
(59.3645430624 8.42773030264 0)
(59.3646877753 8.42778993352 0)
(59.3648379379 8.42785504455 0)
(59.3649924964 8.42792345326 0)
(59.3651506796 8.42799298783 0)
(59.3653120213 8.42806153563 0)
(59.3654763609 8.42812703275 0)
(59.3656438295 8.42818746103 0)
(59.3658148273 8.42824089929 0)
(59.3659899955 8.42828563058 0)
(59.3661701821 8.42832026863 0)
(59.366356403 8.42834385887 0)
(59.3665497954 8.42835592765 0)
(59.3667515689 8.42835647666 0)
(59.3669629543 8.42834593441 0)
(59.3671851558 8.42832507933 0)
(59.3674193079 8.42829494837 0)
(59.3676664398 8.42825674197 0)
(59.3679274494 8.42821173368 0)
(59.3682030871 8.42816119033 0)
(59.3684939487 8.42810630653 0)
(59.3688004784 8.42804815732 0)
(59.3691229789 8.42798767142 0)
(59.369461628 8.42792562429 0)
(59.3698164984 8.4278626449 0)
(59.37018758 8.42779922715 0)
(59.3705748016 8.42773573697 0)
(59.3709780503 8.42767241144 0)
(59.3713971883 8.42760935182 0)
(59.3718320659 8.42754651724 0)
(59.3722825319 8.42748372781 0)
(59.3727484423 8.42742068473 0)
(59.3732296665 8.42735701164 0)
(59.3737260929 8.4272923144 0)
(59.3742376329 8.42722624838 0)
(59.3747642214 8.42715857578 0)
(59.3753058147 8.42708919427 0)
(59.3758623846 8.42701812559 0)
(59.3764339099 8.42694546596 0)
(59.3770203677 8.42687131415 0)
(59.3776217253 8.42679570167 0)
(59.3782379366 8.42671855232 0)
(59.3788689445 8.42663967397 0)
(59.3795146803 8.42655884054 0)
(59.3801750742 8.4264757944 0)
(59.3808500601 8.42639034322 0)
(59.381539579 8.42630246947 0)
(59.3822435813 8.42621230497 0)
(59.3829620213 8.42612010518 0)
(59.3836948504 8.42602619061 0)
(59.3844420101 8.42593087763 0)
(59.3852034254 8.42583442314 0)
(59.3859790015 8.42573699831 0)
(59.3867686238 8.42563869309 0)
(59.3875721598 8.4255395409 0)
(59.3883894628 8.42543954683 0)
(59.3892203745 8.42533870637 0)
(59.390064728 8.42523701031 0)
(59.3909223495 8.42513444029 0)
(59.3917930591 8.42503096402 0)
(59.3926766726 8.4249265373 0)
(59.3935730021 8.42482111465 0)
(59.3944818576 8.42471466429 0)
(59.3954030469 8.42460717963 0)
(59.3963363752 8.42449868017 0)
(59.3972816442 8.4243891985 0)
(59.3982386504 8.42427875656 0)
(59.3992071847 8.42416733906 0)
(59.4001870325 8.42405487491 0)
(59.4011779766 8.42394123584 0)
(59.4021797998 8.42382625603 0)
(59.403192289 8.42370976921 0)
(59.4042152368 8.42359165264 0)
(59.4052484417 8.42347186404 0)
(59.4062917054 8.42335045928 0)
(59.4073448285 8.42322758468 0)
(59.4084076052 8.42310344646 0)
(59.4094798187 8.42297826684 0)
(59.4105612387 8.42285223991 0)
(59.4116516212 8.42272549903 0)
(59.4127507105 8.42259810249 0)
(59.4138582421 8.42247003812 0)
(59.414973947 8.42234124195 0)
(59.4160975545 8.42221162372 0)
(59.4172287944 8.42208109168 0)
(59.4183673981 8.4219495716 0)
(59.419513098 8.42181701744 0)
(59.4206656268 8.42168341378 0)
(59.4218247161 8.42154877194 0)
(59.4229900945 8.42141312223 0)
(59.424161487 8.42127650503 0)
(59.4253386138 8.42113896274 0)
(59.4265211897 8.421000534 0)
(59.4277089244 8.42086125086 0)
(59.4289015224 8.42072113879 0)
(59.4300986833 8.42058021859 0)
(59.4313001021 8.42043850928 0)
(59.4325054692 8.42029603044 0)
(59.4337144706 8.42015280331 0)
(59.4349267875 8.42000885019 0)
(59.4361420965 8.41986419229 0)
(59.4373600698 8.41971884676 0)
(59.4385803745 8.41957282358 0)
(59.4398026741 8.41942612277 0)
(59.441026628 8.41927873227 0)
(59.4422518929 8.41913062652 0)
(59.4434781231 8.41898176599 0)
(59.4447049727 8.41883209791 0)
(59.4459320945 8.4186815593 0)
(59.4471591453 8.41853008232 0)
(59.4483857774 8.418377603 0)
(59.4496116557 8.41822407092 0)
(59.4508364205 8.41806946015 0)
(59.4520597544 8.41791377449 0)
(59.4532812417 8.41775705172 0)
(59.4545006307 8.41759935118 0)
(59.455717312 8.41744075176 0)
(59.4569313218 8.41728131235 0)
(59.458141387 8.41712109433 0)
(59.4593487236 8.41696006906 0)
(59.4605496502 8.41679825923 0)
(59.4617499643 8.41663546013 0)
(59.4629369726 8.4164717535 0)
(59.4641339066 8.41630670655 0)
(59.4652938621 8.41614023173 0)
(59.467573697 8.4157888019 0)
(59.4711117153 8.41532345581 0)
(59.474611866 8.41482811888 0)
(59.4781855043 8.41430394668 0)
(59.4817829276 8.4137532758 0)
(59.4854125526 8.41318093956 0)
(59.4890589859 8.41258617498 0)
(59.4927123745 8.41196615151 0)
(59.4963588738 8.41131829931 0)
(59.4999843116 8.41064097725 0)
(59.5035728409 8.40993258592 0)
(59.5071073573 8.4091914218 0)
(59.5105693873 8.40841555918 0)
(59.5139391593 8.40760248493 0)
(59.5171960617 8.40674908808 0)
(59.5203192337 8.40585267952 0)
(59.5232884589 8.4049126609 0)
(59.5260837731 8.40393105039 0)
(59.5286852103 8.40291062379 0)
(59.5310714821 8.40185152347 0)
(59.5332219546 8.4007500123 0)
(59.5351169138 8.39960061295 0)
(59.5367417708 8.39840047173 0)
(59.5380835035 8.39715045814 0)
(59.5391351566 8.39585410915 0)
(59.5398873525 8.39451322927 0)
(59.5403402582 8.39312878964 0)
(59.5404883251 8.39169899094 0)
(59.5403445589 8.39022576872 0)
(59.5399062554 8.3887083978 0)
(59.5392016374 8.38715347833 0)
(59.5382209068 8.38555807038 0)
(59.5370124519 8.38393237059 0)
(59.5355492159 8.38226553964 0)
(59.5339183349 8.3805764045 0)
(59.5320577156 8.37884093094 0)
(59.5301202398 8.37709772961 0)
(59.5279666629 8.37529641834 0)
(59.5258616481 8.37351335898 0)
(59.5235158039 8.37164625715 0)
(59.5213957617 8.36984138146 0)
(59.5189349941 8.36790448947 0)
(59.5169674389 8.36609721191 0)
(59.5144170414 8.36409604477 0)
(59.5127918287 8.36227811778 0)
(59.510040451 8.36027676359 0)
(59.5090073653 8.35836664234 0)
(59.50538135 8.35573273846 0)
(59.4138260939 8.33991505756 0)
(59.410697791 8.32733794095 0)
(59.4084811859 8.32136402065 0)
(59.4061478498 8.31769310953 0)
(59.4037894692 8.3143707073 0)
(59.4015243192 8.31125472915 0)
(59.3993500245 8.30847882721 0)
(59.3972790249 8.30594151337 0)
(59.3952620091 8.30342295648 0)
(59.3932696625 8.30081593159 0)
(59.3912590464 8.29819660128 0)
(59.3892197558 8.29579855283 0)
(59.3871655713 8.29390449833 0)
(59.3851300401 8.29270737724 0)
(59.3831399402 8.29220346225 0)
(59.3811986268 8.29217563075 0)
(59.379280728 8.29227313636 0)
(59.3773432805 8.2921450829 0)
(59.3753441339 8.29156296224 0)
(59.3732587252 8.29048208429 0)
(59.3710878493 8.28902691311 0)
(59.3688551053 8.28741997394 0)
(59.3665971478 8.28589210607 0)
(59.364352011 8.28460982691 0)
(59.3621500097 8.28364001193 0)
(59.3600094897 8.28295344149 0)
(59.3579373206 8.28245528664 0)
(59.3559324849 8.28202561451 0)
(59.3539906769 8.28155532154 0)
(59.3521082142 8.28096910228 0)
(59.3502843735 8.28023362856 0)
(59.3485220008 8.27935379763 0)
(59.3468268209 8.27836199652 0)
(59.3452060046 8.27730523389 0)
(59.3436666538 8.27623363749 0)
(59.3422144769 8.27519211348 0)
(59.3408530942 8.27421553167 0)
(59.3395836057 8.27332691413 0)
(59.3384050062 8.2725377269 0)
(59.3373141629 8.27184941931 0)
(59.3363071653 8.27125549749 0)
(59.3353785601 8.27074377781 0)
(59.3345241921 8.27029845217 0)
(59.3337375359 8.26990209169 0)
(59.3330170379 8.26953716306 0)
(59.3323537794 8.26918748628 0)
(59.3317535027 8.26883969057 0)
(59.3311974604 8.26848055753 0)
(59.3307699659 8.26814196098 0)
(59.3304673504 8.26785653223 0)
(59.3301747451 8.26755153929 0)
(59.3299001679 8.26722630237 0)
(59.3296473147 8.26688139987 0)
(59.3294148407 8.26651817619 0)
(59.3292038264 8.26613890382 0)
(59.3290149585 8.26574660746 0)
(59.3288486419 8.26534491861 0)
(59.3287052739 8.26493806184 0)
(59.3285850806 8.26453079539 0)
(59.3284881043 8.26412820686 0)
(59.3284141956 8.26373542097 0)
(59.3283629975 8.26335730225 0)
(59.328333954 8.26299816277 0)
(59.3283263373 8.26266146237 0)
(59.328339287 8.26234954338 0)
(59.3283718529 8.2620634764 0)
(59.3284230347 8.26180305445 0)
(59.3284918174 8.26156690471 0)
(59.3285772061 8.26135265758 0)
(59.3286782625 8.26115712884 0)
(59.3287941434 8.26097649879 0)
(59.328924139 8.26080648599 0)
(59.3290677058 8.26064251922 0)
(59.3292244913 8.26047991718 0)
(59.3293943472 8.26031408765 0)
(59.3295773308 8.26014074598 0)
(59.3297736968 8.25995613388 0)
(59.3299838803 8.25975720682 0)
(59.3302084732 8.25954176248 0)
(59.3304481966 8.25930849863 0)
(59.3307038691 8.2590570041 0)
(59.3309763739 8.25878769478 0)
(59.3312666255 8.25850170821 0)
(59.3315755374 8.25820076987 0)
(59.3319039937 8.25788704324 0)
(59.3322528238 8.25756297466 0)
(59.3326227828 8.25723114245 0)
(59.333014538 8.25689411835 0)
(59.3334286604 8.25655434887 0)
(59.3338656231 8.25621406245 0)
(59.3343258039 8.25587520529 0)
(59.3348094936 8.25553940441 0)
(59.3353169073 8.2552079532 0)
(59.3358481974 8.25488181422 0)
(59.3364034679 8.25456163474 0)
(59.3369827869 8.25424777271 0)
(59.3375861976 8.25394033156 0)
(59.3382137266 8.25363920276 0)
(59.3388653898 8.25334411592 0)
(59.3395411971 8.25305469655 0)
(59.340241156 8.25277053069 0)
(59.3409652749 8.25249123196 0)
(59.3417135662 8.25221650202 0)
(59.3424860484 8.2519461718 0)
(59.3432827468 8.25168021321 0)
(59.3441036911 8.25141871753 0)
(59.3449489112 8.25116184717 0)
(59.3458184303 8.25090977544 0)
(59.3467122591 8.25066263371 0)
(59.3476303924 8.25042048112 0)
(59.3485728041 8.25018330755 0)
(59.3495394483 8.24995106498 0)
(59.3505302682 8.24972371781 0)
(59.3515452029 8.24950129682 0)
(59.3525841908 8.24928393514 0)
(59.3536471735 8.24907187626 0)
(59.3547340959 8.24886545224 0)
(59.3558449015 8.24866504052 0)
(59.356979527 8.24847101508 0)
(59.3581378965 8.24828370746 0)
(59.3593199179 8.24810338698 0)
(59.3605254813 8.24793026019 0)
(59.3617544602 8.24776448245 0)
(59.3630067135 8.24760617195 0)
(59.3642820869 8.24745541921 0)
(59.3655804151 8.24731229042 0)
(59.3669015216 8.24717682766 0)
(59.3682452194 8.2470490511 0)
(59.3696113122 8.24692896644 0)
(59.3709995958 8.24681657739 0)
(59.3724098597 8.24671189907 0)
(59.3738418885 8.24661496606 0)
(59.3752954622 8.24652582969 0)
(59.3767703549 8.24644454295 0)
(59.3782663327 8.24637113651 0)
(59.3797831508 8.24630559465 0)
(59.3813205526 8.24624784174 0)
(59.3828782692 8.24619774783 0)
(59.3844560217 8.2461551555 0)
(59.3860535249 8.24611992176 0)
(59.387670491 8.24609196238 0)
(59.3893066332 8.24607128356 0)
(59.3909616673 8.2460579903 0)
(59.3926353113 8.24605226805 0)
(59.394327283 8.24605434382 0)
(59.3960372972 8.24606443899 0)
(59.397765062 8.24608272734 0)
(59.3995102765 8.24610930896 0)
(59.4012726287 8.24614420408 0)
(59.403051796 8.24618736472 0)
(59.4048474456 8.24623869768 0)
(59.4066592361 8.24629809087 0)
(59.4084868191 8.24636543655 0)
(59.4103298409 8.24644064726 0)
(59.4121879437 8.24652366339 0)
(59.4140607661 8.24661445336 0)
(59.4159479437 8.24671300837 0)
(59.4178491081 8.24681933435 0)
(59.4197638873 8.24693344339 0)
(59.4216919044 8.24705534629 0)
(59.4236327773 8.24718504767 0)
(59.4255861189 8.24732254382 0)
(59.4275515365 8.24746782317 0)
(59.4295286324 8.2476208683 0)
(59.4315170042 8.24778165825 0)
(59.4335162455 8.24795017009 0)
(59.435525946 8.24812637894 0)
(59.4375456923 8.2483102564 0)
(59.4395750677 8.24850176778 0)
(59.4416136527 8.24870086878 0)
(59.4436610246 8.24890750198 0)
(59.4457167582 8.24912159346 0)
(59.4477804256 8.24934304961 0)
(59.449851597 8.2495717547 0)
(59.4519298408 8.24980757007 0)
(59.4540147263 8.25005033649 0)
(59.4561058205 8.25029988141 0)
(59.4582026988 8.25055603164 0)
(59.4603049273 8.25081863075 0)
(59.4624120998 8.25108755759 0)
(59.4645237688 8.25136274245 0)
(59.4666395785 8.25164417322 0)
(59.4687590059 8.25193189367 0)
(59.4708818594 8.25222598253 0)
(59.4730073103 8.2525265387 0)
(59.4751357626 8.25283363583 0)
(59.4772652317 8.2531473393 0)
(59.4793983518 8.25346761887 0)
(59.4815288008 8.25379451658 0)
(59.4836675889 8.25412779136 0)
(59.4857921555 8.25446785036 0)
(59.4879448782 8.25481349162 0)
(59.4918745791 8.25551837926 0)
(59.4975853685 8.25654112803 0)
(59.5035102796 8.25764413302 0)
(59.5095408798 8.25883163754 0)
(59.5157021258 8.26011032065 0)
(59.5219650416 8.26148103522 0)
(59.5283175638 8.26294407058 0)
(59.534738196 8.26450086961 0)
(59.5412051337 8.26615317937 0)
(59.5476927178 8.26790117592 0)
(59.5541729311 8.26974332405 0)
(59.5606149124 8.27167709927 0)
(59.5669853078 8.27369925635 0)
(59.5732482374 8.27580556388 0)
(59.5793657863 8.27799055925 0)
(59.5852982943 8.28024811663 0)
(59.5910053567 8.2825728478 0)
(59.5964457107 8.28496112745 0)
(59.6015779866 8.28740946774 0)
(59.6063594586 8.28991091562 0)
(59.6107485405 8.29245240372 0)
(59.6147040098 8.29501723227 0)
(59.6181910674 8.29758968948 0)
(59.6211770004 8.30015924061 0)
(59.6236397431 8.30271788705 0)
(59.6255554797 8.30525833096 0)
(59.6269168205 8.30776874391 0)
(59.6277084138 8.31023857734 0)
(59.6279449571 8.3126549096 0)
(59.6276180875 8.31501503065 0)
(59.6267702314 8.31731089857 0)
(59.6253859025 8.31954926658 0)
(59.623543214 8.32171577842 0)
(59.6212025487 8.32382388544 0)
(59.6185063182 8.32584436285 0)
(59.615363243 8.32781333227 0)
(59.6120220056 8.32967843647 0)
(59.6082755053 8.33152329134 0)
(59.604546447 8.33323854823 0)
(59.6004066533 8.33499722622 0)
(59.5965778595 8.33656171291 0)
(59.5922476432 8.33829158049 0)
(59.5886381124 8.33966991641 0)
(59.5843110737 8.34146569882 0)
(59.581282461 8.34252828223 0)
(59.5771542202 8.34458582023 0)
(59.5751875692 8.34493508232 0)
(59.5713318517 8.34793440925 0)
(59.4172195253 8.35635091438 0)
(59.4199146672 8.36466314382 0)
(59.420178385 8.37054106891 0)
(59.4208417889 8.37609834369 0)
(59.4208297559 8.38120491639 0)
(59.4206539632 8.38569176964 0)
(59.4200841205 8.38963378075 0)
(59.4192687283 8.39309403483 0)
(59.4181449104 8.39594837368 0)
(59.4167333624 8.39806009917 0)
(59.4150373826 8.39943468173 0)
(59.4131187444 8.40027799673 0)
(59.4110626986 8.40093176732 0)
(59.4089681048 8.4017380146 0)
(59.4069112463 8.40290087799 0)
(59.4049261055 8.40441664252 0)
(59.4029976658 8.40609949869 0)
(59.4010752013 8.40768019901 0)
(59.3990957818 8.40892354623 0)
(59.3970085359 8.40971228753 0)
(59.3947903156 8.4100703336 0)
(59.3924492173 8.41012953382 0)
(59.390017476 8.41006564216 0)
(59.3875387222 8.41003413747 0)
(59.3850551114 8.41012806416 0)
(59.3825983039 8.41036580072 0)
(59.3801858325 8.41070411414 0)
(59.3778222682 8.41106511393 0)
(59.3755033579 8.41136511522 0)
(59.3732210861 8.41153688627 0)
(59.3709680423 8.41154158964 0)
(59.36874026 8.41137084005 0)
(59.3665383294 8.41104171612 0)
(59.3643671665 8.41058824115 0)
(59.3622348507 8.4100523343 0)
(59.3601512337 8.40947615731 0)
(59.3581264109 8.40889672211 0)
(59.3561697898 8.40834279295 0)
(59.3542890034 8.40783372255 0)
(59.3524900693 8.40737963358 0)
(59.3507763396 8.40698252676 0)
(59.3491502191 8.40663779221 0)
(59.3476106392 8.40633607831 0)
(59.3461581274 8.40606495125 0)
(59.3447868875 8.40581089176 0)
(59.3434994757 8.40556023934 0)
(59.3422819625 8.4053017709 0)
(59.3411483817 8.40502393362 0)
(59.3401975427 8.40477292477 0)
(59.3393948463 8.40453226721 0)
(59.3386175541 8.40426836807 0)
(59.3378624541 8.40398100072 0)
(59.3371269626 8.4036705208 0)
(59.3364127057 8.40333827629 0)
(59.3357197043 8.40298665391 0)
(59.3350481472 8.40261882755 0)
(59.334398445 8.40223851326 0)
(59.3337709833 8.40184989 0)
(59.3331662072 8.40145755929 0)
(59.3325846125 8.40106641831 0)
(59.3320267253 8.40068150433 0)
(59.3314930891 8.40030786806 0)
(59.3309842389 8.3999503887 0)
(59.3305006697 8.39961342551 0)
(59.3300428052 8.3993003565 0)
(59.3296109738 8.3990131886 0)
(59.3292053945 8.39875239204 0)
(59.3288261723 8.3985169738 0)
(59.328473299 8.39830469998 0)
(59.3281466578 8.39811236195 0)
(59.3278460312 8.39793601924 0)
(59.3275711103 8.39777119444 0)
(59.3273215094 8.39761302757 0)
(59.3270967834 8.39745642154 0)
(59.3268964496 8.39729621614 0)
(59.3267200119 8.3971274086 0)
(59.3265669855 8.39694540356 0)
(59.3264369199 8.39674625099 0)
(59.3263294195 8.39652683077 0)
(59.3262441594 8.3962849615 0)
(59.326180897 8.39601943243 0)
(59.3261394784 8.39572996899 0)
(59.3261198404 8.39541714594 0)
(59.3261220078 8.39508226203 0)
(59.326146087 8.39472718981 0)
(59.3261922564 8.39435421293 0)
(59.3262607547 8.39396586253 0)
(59.3263518677 8.39356476217 0)
(59.3264659149 8.39315349046 0)
(59.326603236 8.39273446852 0)
(59.326764179 8.39230987647 0)
(59.326949089 8.39188159831 0)
(59.3271582995 8.39145119116 0)
(59.3273921257 8.39101987374 0)
(59.3276508589 8.39058853012 0)
(59.3279347635 8.39015772661 0)
(59.3282440757 8.38972774062 0)
(59.3285790029 8.38929860047 0)
(59.3289397251 8.38887013545 0)
(59.329326397 8.38844203572 0)
(59.3297391508 8.38801392036 0)
(59.3301780999 8.3875854091 0)
(59.3306433427 8.38715618858 0)
(59.3311349659 8.3867260613 0)
(59.3316530475 8.38629496656 0)
(59.3321976586 8.38586296884 0)
(59.3327688637 8.38543021847 0)
(59.3333667202 8.38499689658 0)
(59.333991277 8.38456316206 0)
(59.3346425764 8.38412911464 0)
(59.3353206481 8.38369478597 0)
(59.3360255066 8.3832601584 0)
(59.3367571643 8.38282520605 0)
(59.3375156308 8.38238994512 0)
(59.3383009103 8.38195447641 0)
(59.3391130052 8.38151900684 0)
(59.3399519161 8.38108384381 0)
(59.3408176409 8.38064936527 0)
(59.3417101716 8.38021597665 0)
(59.3426294923 8.37978406915 0)
(59.3435755768 8.37935399087 0)
(59.3445483879 8.37892603549 0)
(59.3455478766 8.37850044579 0)
(59.3465739825 8.3780774246 0)
(59.3476266345 8.37765714517 0)
(59.3487057501 8.37723975688 0)
(59.3498112358 8.37682538611 0)
(59.3509429871 8.37641413605 0)
(59.3521008885 8.37600608982 0)
(59.353284815 8.37560131909 0)
(59.3544946329 8.37519989714 0)
(59.3557302005 8.37480191161 0)
(59.3569913692 8.37440747056 0)
(59.3582779817 8.37401669733 0)
(59.3595898711 8.37362971346 0)
(59.3609268583 8.37324661505 0)
(59.36228875 8.37286745178 0)
(59.363675338 8.3724922189 0)
(59.3650863994 8.37212086832 0)
(59.3665216996 8.37175333788 0)
(59.3679809955 8.37138959038 0)
(59.3694640393 8.37102964941 0)
(59.370970582 8.37067361993 0)
(59.3725003743 8.37032168658 0)
(59.3740531672 8.36997409108 0)
(59.3756287094 8.36963109664 0)
(59.3772267451 8.36929295066 0)
(59.3788470101 8.3689598562 0)
(59.3804892293 8.36863195801 0)
(59.3821531147 8.36830934381 0)
(59.3838383646 8.36799205712 0)
(59.3855446635 8.36768011558 0)
(59.3872716836 8.36737352955 0)
(59.3890190858 8.36707231687 0)
(59.3907865214 8.3667765121 0)
(59.3925736333 8.3664861704 0)
(59.3943800566 8.36620136674 0)
(59.3962054193 8.36592219202 0)
(59.398049342 8.3656487475 0)
(59.3999114374 8.36538113873 0)
(59.4017913099 8.36511947031 0)
(59.4036885551 8.3648638421 0)
(59.4056027599 8.36461434729 0)
(59.4075335021 8.3643710721 0)
(59.4094803508 8.36413409658 0)
(59.4114428673 8.36390349559 0)
(59.4134206048 8.36367933933 0)
(59.415413109 8.36346169303 0)
(59.4174199182 8.36325061564 0)
(59.4194405632 8.3630461578 0)
(59.4214745669 8.36284835902 0)
(59.4235214436 8.36265724439 0)
(59.4255806991 8.36247282068 0)
(59.4276518295 8.36229507247 0)
(59.4297343221 8.36212395904 0)
(59.4318276531 8.361959414 0)
(59.433931292 8.36180134882 0)
(59.436044695 8.36164966218 0)
(59.4381673214 8.36150425376 0)
(59.4402986062 8.36136504172 0)
(59.4424380208 8.36123197694 0)
(59.4445849628 8.36110505516 0)
(59.4467389767 8.36098431212 0)
(59.4488993326 8.36086982314 0)
(59.4510658457 8.36076166653 0)
(59.4532372862 8.36065993954 0)
(59.4554144598 8.36056467375 0)
(59.4575942244 8.36047595631 0)
(59.4597810888 8.36039370925 0)
(59.4619646891 8.36031803828 0)
(59.4641635191 8.36024903408 0)
(59.4663399705 8.36018542033 0)
(59.4705197632 8.36006987624 0)
(59.4769022608 8.35997863006 0)
(59.4834069851 8.35993494808 0)
(59.4901100531 8.35994753633 0)
(59.4969689467 8.36002467315 0)
(59.5039824485 8.36017425601 0)
(59.5111302797 8.36039909857 0)
(59.5183945338 8.36070084315 0)
(59.5257520757 8.36108127397 0)