/*--------------------------------*- C++ -*----------------------------------*\
  =========                 |
  \\      /  F ield         | OpenFOAM: The Open Source CFD Toolbox
   \\    /   O peration     | Website:  https://openfoam.org
    \\  /    A nd           | Version:  6
     \\/     M anipulation  |
\*---------------------------------------------------------------------------*/
FoamFile
{
    version     2.0;
    format      ascii;
    class       volScalarField;
    location    "0.261799";
    object      k;
}
// * * * * * * * * * * * * * * * * * * * * * * * * * * * * * * * * * * * * * //

dimensions      [0 2 -2 0 0 0 0];

internalField   nonuniform List<scalar> 
43264
(
5.81375384964
3.56309208934
2.71480871362
2.35334061597
2.18975602724
2.11360717066
2.07782005716
2.06107826383
2.05340082261
2.05002993632
2.04867928137
2.04824988422
2.04821759327
2.04833703689
2.04849744819
2.04865226358
2.04878480965
2.048891713
2.0489750076
2.04903849124
2.0490861345
2.04912146162
2.04914737532
2.04916617126
2.04917962201
2.04918907671
2.04919555361
2.04919981788
2.04920244367
2.04920386199
2.04920439696
2.04920429287
2.04920373432
2.04920286107
2.04920177908
2.0492005688
2.04919929121
2.04919799261
2.04919670787
2.04919546348
2.04919427895
2.04919316938
2.04919214492
2.04919121451
2.04919038189
2.04918965388
2.04918902783
2.04918851604
2.04919207023
2.04919459714
2.04919634686
2.04919749154
2.04919815867
2.04919844762
2.04919843952
2.04919820094
2.0491977867
2.04919724169
2.04919660188
2.0491958952
2.04919514266
2.04919435954
2.04919355676
2.04919274208
2.04919192122
2.04919109861
2.04919027792
2.04918946239
2.04918865495
2.04918785829
2.04918707489
2.04918630694
2.04918555643
2.04918482509
2.04918411445
2.04918342584
2.04918276042
2.04918211925
2.04918150323
2.04918091321
2.04918034993
2.04917981407
2.04917930628
2.04917882711
2.04917837711
2.04917795677
2.04917756655
2.04917720687
2.04917687813
2.04917658071
2.04917631494
2.04917608116
2.04917587966
2.04917571072
2.04917557461
2.04917547157
2.04917540182
2.04917536558
2.04917536302
2.04917539434
2.04917545967
2.04917555918
2.049175693
2.04917586124
2.049176064
2.0491763014
2.0491765735
2.04917688039
2.04917722212
2.04917759903
2.04917801084
2.04917845721
2.04917893859
2.04917945497
2.04918000633
2.04918059267
2.04918121395
2.04918187014
2.04918256121
2.04918328709
2.04918404771
2.049184843
2.04918567287
2.04918653722
2.04918743592
2.04918836887
2.04918933593
2.04919033695
2.04919137179
2.04919244028
2.04919354226
2.04919467754
2.04919584594
2.04919704727
2.0491982813
2.04919954783
2.04920084664
2.0492021775
2.04920354016
2.04920493439
2.04920635993
2.04920781652
2.04920930391
2.04921082181
2.04921236996
2.04921394806
2.04921555583
2.04921719298
2.04921885919
2.04922055418
2.04922227762
2.0492240292
2.0492258086
2.0492276155
2.04922944958
2.04923131049
2.04923319792
2.04923511152
2.04923705097
2.04923901591
2.04924100602
2.04924302094
2.04924506034
2.04924712388
2.04924921122
2.04925132201
2.04925345591
2.04925561259
2.04925779171
2.04925999294
2.04926221594
2.04926446038
2.04926672595
2.04926901232
2.04927131918
2.04927364623
2.04927599317
2.0492783597
2.04928074555
2.04928315043
2.04928557411
2.0492880163
2.04929047681
2.04929295536
2.04929545185
2.04929796586
2.04930049768
2.04930304629
2.04930561323
2.04930819518
2.04931079828
2.0493134036
2.04930316452
2.0493001329
2.04930170273
2.04930603507
2.04931213977
2.04931939279
2.04932747265
2.04933619841
2.04934547003
2.04935522368
2.04936541705
2.04937602028
2.04938701184
2.04939837545
2.04941009772
2.04942216707
2.04943457207
2.04944730166
2.04946034325
2.04947368466
2.04948731066
2.04950120852
2.0495153599
2.04952975379
2.04954436712
2.04955919445
2.04957420364
2.04958940293
2.04960474167
2.04962025863
2.0496358635
2.04965165907
2.04966747017
2.04968353096
2.04969948889
2.04971584341
2.04973188035
2.04974862505
2.04976464499
2.04978198633
2.04979782976
2.04981615048
2.04983154532
2.0498514964
2.04986604065
2.0498886081
2.04990206953
2.04992827887
5.62861694269
3.16188864052
2.10788023688
1.56920712813
1.26226295535
1.07486157956
0.955105727835
0.876136871693
0.822878534534
0.786354791082
0.760987677218
0.743198575484
0.730633606584
0.721711806632
0.715351874753
0.710803065254
0.707538697698
0.705187604618
0.703488449331
0.702257905243
0.701367616694
0.700727258088
0.700272264748
0.699955312785
0.699740742663
0.699601130488
0.699515263824
0.699466913017
0.699443974139
0.699437744309
0.699442234952
0.699453517173
0.699469130829
0.699487590587
0.699508006714
0.69952981894
0.699552627617
0.699576098658
0.699599919223
0.699623783204
0.699647393522
0.699670469326
0.699692757108
0.699714036322
0.699734129972
0.699752900894
0.699770266231
0.699786171387
0.699796756492
0.699806878224
0.699816484593
0.699825541655
0.699834032839
0.699841958051
0.699849330497
0.699856173856
0.699862520175
0.699868408706
0.69987388493
0.699878999248
0.69988380521
0.699888356931
0.6998927053
0.699896893391
0.699900952463
0.699904899962
0.699908739986
0.699912465549
0.699916061515
0.699919507198
0.699922778189
0.699925847442
0.699928686048
0.699931264191
0.699933552629
0.699935524661
0.699937158262
0.699938437933
0.69993935592
0.69993991268
0.699940116626
0.699939983311
0.699939534227
0.69993879539
0.699937795878
0.699936566429
0.699935138193
0.699933541691
0.699931806007
0.69992995821
0.699928022967
0.699926022268
0.699923975211
0.699921897809
0.699919802826
0.699917699736
0.699915594851
0.699913491712
0.699911391726
0.699909295006
0.699907201276
0.69990511065
0.699903024129
0.699900943686
0.699898871961
0.699896811693
0.699894765113
0.699892733527
0.699890717281
0.699888716136
0.699886729918
0.699884759255
0.699882806242
0.699880874693
0.69987897001
0.699877098647
0.699875267382
0.699873482597
0.699871749765
0.69987007322
0.699868456187
0.699866900965
0.699865409157
0.699863981839
0.699862619669
0.69986132295
0.699860091708
0.699858925792
0.699857825005
0.699856789196
0.699855818284
0.699854912183
0.699854070632
0.699853293003
0.699852578167
0.699851924484
0.69985132998
0.699850792678
0.699850311015
0.699849884231
0.699849512615
0.69984919753
0.699848941201
0.699848746327
0.699848615606
0.699848551297
0.699848554912
0.699848627087
0.699848767634
0.699848975724
0.699849250139
0.699849589535
0.699849992651
0.699850458448
0.699850986164
0.699851575304
0.699852225583
0.699852936842
0.699853708972
0.69985454185
0.699855435297
0.699856389061
0.699857402818
0.699858476178
0.699859608686
0.69986079982
0.699862048966
0.699863355391
0.699864718211
0.699866136353
0.699867608533
0.699869133243
0.699870708758
0.699872333157
0.699874004379
0.699875720296
0.699877478809
0.699879277959
0.699881116025
0.699882991604
0.699884903618
0.699886851292
0.699888833993
0.699890851155
0.699892901903
0.699894985232
0.699897099182
0.699899242133
0.699901410141
0.699903602397
0.699905810021
0.699908043195
0.699915364437
0.699922426246
0.699929497028
0.69993692133
0.699944849759
0.699953367897
0.699962496003
0.699972249636
0.699982635286
0.699993640711
0.700005231276
0.700017354509
0.700029943331
0.700042922883
0.700056225642
0.700069810719
0.700083670738
0.700097810282
0.700112199488
0.700126739556
0.700141275151
0.700155654095
0.700169779124
0.700183615782
0.700197146406
0.700210337036
0.700223118149
0.700235426409
0.700247202285
0.700258439268
0.700269111342
0.700279251225
0.700288805963
0.70029784347
0.700306259959
0.700314227492
0.70032154331
0.700328584409
0.700334890173
0.700341245304
0.70034656766
0.700352566505
0.700356612676
0.700362810456
0.700364065065
0.70037180278
0.700364155563
0.700371286138
5.62401235268
3.14566595027
2.07344013588
1.51155450329
1.17844395382
0.963792565868
0.817154577523
0.712670010693
0.635866919556
0.578067407717
0.533772784201
0.499340289171
0.472267422694
0.450782502468
0.433599242087
0.419764047225
0.408558055761
0.399432459036
0.391964392719
0.385825725912
0.380760177847
0.37656611753
0.373083527267
0.370184192105
0.367764430683
0.365739784236
0.364041144255
0.362611878685
0.361405617954
0.360384469397
0.359517521979
0.358779570703
0.358150029547
0.357612018759
0.357151615002
0.356757249272
0.356419233141
0.356129391402
0.35588077948
0.355667466213
0.355484365897
0.355327107082
0.355191928506
0.355075595287
0.354975329853
0.354888754155
0.354813839913
0.354748866045
0.354705673369
0.354665937134
0.354629392549
0.354595802037
0.354564950907
0.354536646905
0.354510719312
0.354487017188
0.354465407383
0.354445772384
0.354428007913
0.35441202028
0.35439772361
0.354385036998
0.354373881554
0.354364177411
0.354355841018
0.354348783132
0.354342907829
0.354338112545
0.354334288949
0.354331324363
0.354329103479
0.354327510187
0.354326429484
0.354325749428
0.354325363175
0.354325171014
0.354325082287
0.354325017004
0.354324906999
0.354324696535
0.354324342343
0.35432381312
0.354323088597
0.354322158249
0.354321019792
0.354319677567
0.354318140908
0.354316422595
0.354314537466
0.354312501214
0.354310329413
0.354308036758
0.354305636507
0.354303140098
0.35430055694
0.354297894354
0.354295157681
0.354292350536
0.354289475191
0.354286533064
0.354283525232
0.354280452915
0.354277317842
0.354274122432
0.354270869785
0.354267563505
0.354264207436
0.35426080541
0.354257361102
0.354253878005
0.354250359716
0.354246810027
0.35424323326
0.354239634463
0.354236019426
0.354232394545
0.354228766566
0.354225142256
0.35422152811
0.354217930132
0.354214353712
0.354210803602
0.354207283939
0.354203798297
0.354200349733
0.354196940846
0.354193573834
0.354190250566
0.354186972667
0.354183741588
0.354180558647
0.354177425028
0.354174341738
0.35417130954
0.354168328892
0.354165399952
0.354162522652
0.354159696869
0.354156922639
0.354154200398
0.354151531147
0.354148916521
0.354146358726
0.354143860361
0.354141424159
0.354139052727
0.354136748332
0.354134512767
0.354132347324
0.354130252859
0.354128229904
0.354126278817
0.354124399917
0.354122593582
0.354120860321
0.35411920079
0.354117615781
0.354116106191
0.354114672976
0.354113317112
0.354112039562
0.354110841247
0.354109723038
0.354108685745
0.354107730104
0.354106856768
0.354106066289
0.354105359091
0.354104735446
0.354104195449
0.354103738996
0.354103365779
0.354103075284
0.354102866817
0.354102739543
0.354102692554
0.354102724955
0.354102835962
0.354103024999
0.354103291774
0.354103636315
0.354104058954
0.354104560255
0.35410514089
0.354105801511
0.354106542584
0.354107364344
0.354108266622
0.354109249097
0.354110310843
0.354111451474
0.354112668934
0.354115934127
0.3541199738
0.354124796846
0.354130414531
0.354136867936
0.354144194652
0.354152429964
0.354161605288
0.354171745615
0.354182864167
0.354194960242
0.354208018836
0.354222009893
0.35423688856
0.354252599945
0.354269088899
0.354286307626
0.354304209126
0.354322722674
0.354341728103
0.354361054299
0.35438050989
0.354399921227
0.354419147888
0.354438065868
0.354456545115
0.354474439899
0.354491608019
0.354507927571
0.35452331768
0.354537717805
0.354551090927
0.354563379385
0.354574553964
0.354584556613
0.354593420013
0.35460111264
0.35460777355
0.354613342854
0.354618100561
0.354621825828
0.354625081758
0.354627179915
0.354629438053
0.354629731199
0.354631736504
0.354628727158
0.354629409492
5.62389907238
3.14512390307
2.07170203994
1.50770112872
1.17151229983
0.952876608523
0.80147789684
0.691623653782
0.609019660075
0.545157055556
0.49468635191
0.454089233266
0.420962443359
0.393610540141
0.370803671273
0.351627962031
0.335390107198
0.321554790821
0.309702519252
0.299500420156
0.290681457955
0.283029269369
0.276366891283
0.270548289947
0.265451965742
0.260976113956
0.257034945225
0.253555856157
0.250477212616
0.247746571697
0.245319222283
0.243156965847
0.241227088158
0.239501490285
0.237955956637
0.236569542054
0.235324061705
0.234203668548
0.233194504228
0.232284410677
0.231462691433
0.23071991329
0.230047740685
0.229438796305
0.228886543123
0.228385183094
0.227929570465
0.227515150421
0.227229242171
0.226956950254
0.226697763936
0.226451215603
0.226216858787
0.225994267556
0.22578303544
0.225582774078
0.225393111647
0.225213691109
0.225044168239
0.224884209436
0.224733489399
0.224591688722
0.22445849149
0.224333582978
0.224216647647
0.22410736765
0.224005421948
0.22391048608
0.223822232476
0.223740331235
0.223664451261
0.22359426167
0.223529433429
0.22346964116
0.22341456508
0.223363892965
0.223317322066
0.22327456083
0.223235330351
0.223199365464
0.223166415466
0.223136244458
0.22310863134
0.223083369505
0.223060266289
0.223039142244
0.223019830292
0.223002174829
0.22298603083
0.222971262996
0.222957744974
0.222945358677
0.222933993691
0.222923546796
0.222913921572
0.2229050281
0.222896782747
0.222889108008
0.222881932414
0.222875190466
0.222868822571
0.222862774963
0.222856999564
0.22285145377
0.222846100148
0.22284090605
0.222835843183
0.222830887157
0.222826017065
0.222821215802
0.222816467901
0.222811760034
0.2228070831
0.222802429445
0.222797793461
0.222793171362
0.222788560914
0.222783961136
0.222779372016
0.222774794235
0.222770228958
0.222765677658
0.222761141996
0.222756623731
0.222752124661
0.222747646575
0.222743191229
0.222738760328
0.222734355532
0.222729978458
0.222725630691
0.222721313779
0.222717029222
0.222712778443
0.222708562764
0.222704383395
0.222700241452
0.222696138008
0.222692074178
0.222688051221
0.222684070618
0.22268013413
0.222676243793
0.222672401866
0.22266861073
0.222664872778
0.222661190311
0.222657565454
0.222654000128
0.222650496045
0.222647054749
0.222643677664
0.222640366157
0.222637121584
0.222633945327
0.222630838819
0.222627803543
0.222624841028
0.222621952832
0.222619140522
0.222616405655
0.222613749762
0.222611174332
0.222608680799
0.222606270534
0.222603944829
0.22260170489
0.222599551819
0.222597486599
0.222595510086
0.222593622991
0.22259182588
0.222590119172
0.222588503147
0.222586977974
0.222585543739
0.222584200495
0.22258294832
0.22258178737
0.22258071793
0.222579740445
0.222578855523
0.222578063913
0.222577366455
0.222576764012
0.222576257426
0.22257584743
0.22257553469
0.222575319674
0.222575202893
0.222575184563
0.222575265205
0.222576283917
0.222578062362
0.222580663924
0.222584165818
0.222588637933
0.222594144932
0.222600744281
0.222608488614
0.222617423195
0.222627582732
0.222638989304
0.222651651162
0.222665561182
0.222680695766
0.222697016002
0.222714471798
0.222733005771
0.222752550311
0.222773014429
0.222794267838
0.222816136692
0.222838418225
0.222860903908
0.222883393988
0.222905694823
0.222927609689
0.222948935354
0.2229694747
0.22298905269
0.223007531523
0.223024801983
0.223040776396
0.223055363926
0.223068490419
0.223080084508
0.223090135782
0.223098634949
0.223105669877
0.223111260751
0.223115591988
0.223118628153
0.223120703739
0.223121560113
0.223121892964
0.223120762444
0.223119879665
0.223116468392
0.223113830014
5.62389538422
3.14502317885
2.07150149419
1.5073261779
1.17083624875
0.951736998153
0.799689669004
0.688992350381
0.605353036261
0.540274162768
0.488423874975
0.446305408107
0.411539096577
0.382453786718
0.357843654493
0.336817839615
0.318704381925
0.302987085408
0.289262965009
0.277212895806
0.266580925794
0.257159399796
0.248778070305
0.241296007963
0.234595520837
0.228577540001
0.223158086759
0.218265541517
0.213838507521
0.20982411694
0.206176668019
0.202856513291
0.199829141931
0.197064415661
0.194535928731
0.192220469883
0.190097569039
0.188149114823
0.186359031397
0.184713005039
0.183198252411
0.181803323781
0.180517935538
0.179332827301
0.178239639564
0.177230808667
0.176299476174
0.175439444677
0.174839638669
0.174262138706
0.173706480854
0.17317225657
0.172659067352
0.172166523303
0.171694241538
0.171241844406
0.170808957619
0.170395208312
0.170000223047
0.169623625752
0.169265035677
0.16892406538
0.168600318795
0.168293389439
0.168002858856
0.167728295422
0.167469253604
0.167225273689
0.166995881981
0.166780591431
0.166578902632
0.166390305165
0.166214279246
0.166050297643
0.165897827823
0.165756334275
0.165625280929
0.165504133591
0.165392362323
0.16528944369
0.165194862838
0.165108115373
0.165028709019
0.164956165055
0.164890019539
0.164829824322
0.16477514788
0.164725575978
0.16468071218
0.164640178234
0.164603614336
0.164570679297
0.164541050605
0.164514424411
0.164490515417
0.164469056698
0.164449799444
0.164432512639
0.164416982664
0.164403012842
0.164390422915
0.164379048447
0.164368740167
0.164359363221
0.164350796372
0.16434293113
0.164335670856
0.16432892984
0.164322632409
0.164316714182
0.164311115278
0.164305782288
0.164300674022
0.164295753096
0.164290987708
0.16428635105
0.16428182072
0.164277378161
0.164273008126
0.164268698194
0.164264438328
0.164260220497
0.16425603835
0.164251886934
0.164247762461
0.164243662101
0.164239583817
0.164235526217
0.164231488442
0.164227470074
0.164223471052
0.164219491617
0.164215532244
0.164211593593
0.164207676455
0.164203781711
0.164199910304
0.164196063237
0.164192241579
0.164188446496
0.164184679277
0.164180941356
0.164177234314
0.164173559864
0.164169919814
0.164166316019
0.164162750331
0.164159224562
0.164155740455
0.164152299678
0.164148903826
0.164145554439
0.164142253019
0.164139001054
0.16413580003
0.164132651444
0.16412955681
0.164126517654
0.164123535515
0.16412061193
0.164117748429
0.164114946524
0.164112207695
0.16410953339
0.16410692501
0.164104383904
0.164101911365
0.164099508619
0.164097176821
0.16409491705
0.1640927303
0.164090617481
0.164088579414
0.164086616836
0.164084730407
0.164082920724
0.164081188339
0.164079533783
0.164077957593
0.164076460334
0.164075042623
0.164073705133
0.164072448599
0.164071273804
0.164070181566
0.164069172717
0.1640682481
0.164067408525
0.164066654839
0.164065987768
0.164065408263
0.164064916552
0.164064124201
0.164064023427
0.164064671083
0.164066123293
0.164068440936
0.164071683244
0.164075907049
0.164081165247
0.164087504987
0.164094965318
0.164103575464
0.164113353344
0.164124303911
0.164136417693
0.164149670547
0.164164025126
0.164179432559
0.164195830877
0.16421313798
0.164231242499
0.16425000017
0.164269240555
0.164288780021
0.164308432079
0.16432800947
0.164347321942
0.164366176428
0.164384385668
0.164401780064
0.16441821819
0.164433583808
0.164447779379
0.164460712713
0.164472305474
0.16448249297
0.164491252916
0.164498583866
0.164504541734
0.164509170142
0.16451258988
0.16451484222
0.164516121681
0.164516392779
0.164515989465
0.164514634697
0.164512983147
0.16451027174
0.164507111095
5.62389600396
3.14508648126
2.07158426246
1.50740335447
1.17088601087
0.951733280927
0.799600487665
0.688779599759
0.604973287233
0.539680011969
0.487565509214
0.445132142541
0.410000778151
0.380502028915
0.355432893698
0.333906196153
0.315254299134
0.298965726786
0.284642374222
0.271969955576
0.260697173962
0.25062076537
0.241574579841
0.233421491355
0.226047325175
0.219356247182
0.213267226746
0.207711296245
0.20262940661
0.19797073196
0.193691315031
0.189752973419
0.186122407425
0.182770465536
0.179671534714
0.176803030707
0.17414496944
0.171679604844
0.169391121609
0.167265373751
0.165289661656
0.163452541675
0.161743663379
0.160153630432
0.158673881675
0.157296589482
0.15601457304
0.154821271901
0.153984206168
0.153173643497
0.152389304071
0.151630973822
0.150898442223
0.150191499725
0.149509935064
0.148853532507
0.148222069064
0.147615311695
0.147033014545
0.146474916223
0.145940737177
0.145430177203
0.144942913138
0.144478596788
0.144036853143
0.143617278985
0.143219441903
0.142842879789
0.142487100787
0.142151583714
0.141835778929
0.141539109635
0.141260973604
0.141000745284
0.14075777828
0.140531408126
0.140320955335
0.140125728617
0.13994502823
0.139778149382
0.139624385627
0.139483032214
0.139353389327
0.139234765193
0.139126479012
0.139027863693
0.138938268367
0.138857060663
0.138783628739
0.138717383052
0.138657757875
0.138604212543
0.138556232449
0.138513329774
0.138475043982
0.138440942062
0.138410618561
0.1383836954
0.138359821496
0.13833867221
0.13831994864
0.13830337676
0.138288706438
0.138275710348
0.138264182776
0.138253938368
0.138244810824
0.138236651564
0.138229328413
0.138222727848
0.13821674366
0.138211280491
0.138206263246
0.138201623147
0.138197300695
0.138193244709
0.13818941141
0.138185763546
0.138182269591
0.138178903003
0.138175641554
0.138172466734
0.13816936322
0.138166318411
0.138163322022
0.138160365722
0.138157442831
0.138154548048
0.138151677229
0.138148827191
0.138145995552
0.138143180591
0.138140381131
0.138137596435
0.138134826119
0.138132070079
0.138129328427
0.138126601455
0.138123889604
0.138121193449
0.138118513695
0.138115851168
0.138113206807
0.13811058165
0.138107976811
0.138105393455
0.138102832772
0.138100295954
0.138097784181
0.138095298612
0.138092840383
0.138090410608
0.138088010391
0.138085640823
0.138083302999
0.138080998013
0.138078726964
0.138076490958
0.138074291101
0.138072128496
0.138070004243
0.138067919428
0.13806587512
0.138063872368
0.138061912196
0.138059995599
0.138058123539
0.138056296943
0.138054516702
0.138052783665
0.138051098638
0.138049462381
0.138047875612
0.138046338999
0.138044853168
0.138043418707
0.138042036168
0.13804070608
0.138039428958
0.138038205313
0.138037035662
0.138035920536
0.138034860488
0.138033856088
0.138032907928
0.138032016621
0.138031182791
0.138030407083
0.138029690139
0.138029032632
0.138028435206
0.138027898394
0.138026883322
0.138026323397
0.138026261741
0.138026744281
0.138027816078
0.138029521502
0.138031903082
0.138035000936
0.138038851344
0.138043485267
0.138048927131
0.138055193763
0.138062293229
0.138070223756
0.138078973198
0.138088519264
0.138098829855
0.138109861896
0.138121557643
0.138133840046
0.138146610844
0.13815975387
0.138173141855
0.138186642453
0.138200120595
0.138213438685
0.138226457884
0.138239043514
0.138251072302
0.138262438698
0.138273054155
0.138282843628
0.138291739082
0.138299683696
0.138306633481
0.138312571644
0.138317499384
0.138321451521
0.138324463459
0.138326610814
0.138327936153
0.138328554982
0.138328478851
0.138327885472
0.138326685004
0.138325170893
0.138323111366
0.13832057333
5.62389547862
3.14503239635
2.07150894464
1.50732138857
1.17080269665
0.951649391423
0.799513461845
0.688684204341
0.604861958252
0.539543091294
0.487391476604
0.444907894943
0.409711955963
0.380133371575
0.354968602417
0.333330282846
0.314550903451
0.298119387773
0.283638249909
0.270793991396
0.259336227334
0.249062696914
0.239808321165
0.231437096128
0.223836006218
0.216910399238
0.210580433383
0.204778319873
0.199446162123
0.194534246243
0.189999675769
0.185805271059
0.181918673824
0.178311612023
0.174959291285
0.171839887149
0.168934118469
0.166224886857
0.163696970493
0.161336763119
0.159132051055
0.157071822446
0.155146104103
0.153345822089
0.151662682824
0.150089071961
0.14861796867
0.147242928455
0.146275443802
0.145335747468
0.144423710319
0.143539277297
0.142682395852
0.141853012456
0.141051069039
0.140276499341
0.139529225243
0.138809153124
0.138116170259
0.137450141321
0.136810905032
0.136198271003
0.135612016822
0.135051885436
0.134517582888
0.134008776465
0.133525093304
0.133066119501
0.13263139973
0.132220437386
0.13183269526
0.131467596735
0.131124527482
0.130802837654
0.13050184453
0.130220835577
0.129959071878
0.12971579186
0.129490215261
0.129281547275
0.129088982798
0.128911710714
0.128748918164
0.128599794737
0.128463536523
0.128339349984
0.128226455604
0.128124091268
0.128031515347
0.127948009471
0.12787288095
0.127805464856
0.12774512574
0.127691259002
0.1276432919
0.127600684221
0.12756292864
0.127529550755
0.127500108857
0.127474193435
0.12745142645
0.127431460407
0.127413977249
0.127398687102
0.127385326895
0.127373658891
0.127363469146
0.127354565936
0.127346778169
0.127339958363
0.127333968193
0.127328683123
0.127324004391
0.127319841258
0.127316114801
0.127312756717
0.127309708168
0.127306918708
0.127304345285
0.127301951325
0.127299705902
0.127297582989
0.12729556079
0.127293621145
0.127291749006
0.127289931974
0.127288159896
0.127286424515
0.127284719164
0.127283038508
0.127281378323
0.127279735306
0.127278106913
0.127276491222
0.127274886818
0.127273292691
0.127271708163
0.127270132817
0.127268566453
0.127267009049
0.127265460734
0.127263921764
0.127262392506
0.127260873415
0.127259365015
0.127257867883
0.127256382628
0.127254909881
0.127253450279
0.127252004461
0.127250573065
0.127249156727
0.127247756079
0.127246371756
0.127245004392
0.127243654623
0.12724232309
0.127241010433
0.127239717294
0.127238444314
0.127237192131
0.127235961376
0.127234752672
0.127233566632
0.127232403858
0.127231264935
0.127230150436
0.127229060916
0.127227996912
0.127226958941
0.127225947502
0.127224963071
0.127224006101
0.127223077026
0.127222176255
0.127221304179
0.127220461168
0.127219647578
0.127218863754
0.127218110033
0.127217386751
0.127216694245
0.127216032855
0.127215402931
0.12721480483
0.127214238917
0.127213705569
0.127213205165
0.127212738106
0.127212304759
0.12721190558
0.127211540745
0.127210780429
0.127210279158
0.127210062066
0.127210154264
0.127210581809
0.127211370345
0.127212544754
0.127214128543
0.127216143118
0.127218606965
0.127221534998
0.127224937961
0.127228821798
0.127233187022
0.127238028271
0.127243334142
0.127249087043
0.127255262383
0.127261826737
0.127268735699
0.127275933087
0.127283352604
0.127290921162
0.127298562001
0.127306196236
0.127313743464
0.127321122877
0.127328256154
0.127335071249
0.127341505591
0.127347506143
0.127353027869
0.127358031159
0.127362483658
0.12736636174
0.127369656436
0.1273723703
0.127374522484
0.127376136069
0.127377251422
0.127377899368
0.12737813795
0.127377989929
0.127377534661
0.127376763417
0.127375782845
0.127374570659
0.127373022463
5.62389586659
3.14507784647
2.0715724731
1.50738945236
1.1708691512
0.951711119929
0.79956881017
0.688732061578
0.604901279231
0.539572636385
0.487409663927
0.444912709133
0.409700897943
0.380103445464
0.354916336939
0.333251781382
0.314441914001
0.297975383175
0.283454509924
0.270565680967
0.25905846835
0.248730633176
0.239417177437
0.23098223229
0.223312966915
0.216314958783
0.209908635208
0.204026509788
0.198611015021
0.193612786285
0.188989290593
0.18470372076
0.180724095572
0.17702252107
0.173574578935
0.17035881605
0.16735631541
0.164550333145
0.161925989884
0.159470007345
0.157170482962
0.155016696878
0.152998946705
0.151108406311
0.149337005452
0.147677327567
0.146122523398
0.144666297044
0.143640167951
0.142642033998
0.141671847277
0.140729639118
0.139815444237
0.13892929678
0.138071226264
0.137241253412
0.136439385967
0.135665614508
0.134919908323
0.134202211387
0.133512438511
0.132850471702
0.132216156799
0.131609300439
0.13102966741
0.130476978442
0.129950908481
0.129451085492
0.128977089807
0.128528454047
0.128104663615
0.127705157765
0.12732933124
0.126976536446
0.126646086152
0.126337256654
0.126049291375
0.125781404821
0.125532786853
0.125302607181
0.125090020038
0.124894168933
0.124714191442
0.124549223945
0.124398406261
0.124260886113
0.124135823367
0.124022394004
0.123919793772
0.123827241504
0.123743982047
0.123669288812
0.123602465921
0.123542849938
0.123489811212
0.123442754819
0.123401121134
0.123364386039
0.123332060814
0.123303691717
0.123278859293
0.123257177444
0.123238292298
0.123221880892
0.12320764972
0.123195333172
0.123184691888
0.123175511068
0.123167598758
0.12316078924
0.123154926894
0.123149871398
0.123145511208
0.123141743681
0.123138479342
0.123135640569
0.123133160316
0.123130980925
0.123129053035
0.123127334566
0.123125789805
0.123124388575
0.123123105492
0.123121919302
0.123120812295
0.123119769784
0.123118779649
0.123117831946
0.123116918559
0.123116032904
0.123115169677
0.123114324635
0.123113494414
0.12311267637
0.123111868448
0.123111069073
0.123110277056
0.12310949152
0.12310871184
0.123107937594
0.123107168526
0.123106404516
0.123105645551
0.123104891707
0.123104143126
0.123103400004
0.123102662574
0.123101931094
0.12310120584
0.123100487102
0.123099775172
0.123099070352
0.123098372945
0.123097683257
0.123097001598
0.123096328281
0.123095663618
0.123095007926
0.123094361521
0.123093724718
0.123093097834
0.123092481179
0.123091875063
0.123091279789
0.123090695659
0.123090122964
0.123089561991
0.123089013022
0.123088476327
0.123087952171
0.123087440808
0.123086942485
0.123086457437
0.123085985891
0.123085528063
0.123085084161
0.123084654382
0.123084238918
0.123083837952
0.123083451666
0.123083080238
0.123082723845
0.123082382665
0.123082056879
0.123081746669
0.12308145222
0.12308117372
0.123080911364
0.123080665338
0.123080435846
0.123080223067
0.123080027172
0.123079615102
0.123079327638
0.123079177266
0.123079177159
0.123079340374
0.123079679861
0.123080208112
0.123080936922
0.123081877012
0.12308303766
0.12308442643
0.123086048942
0.123087908632
0.123090006465
0.123092340657
0.123094906415
0.123097695649
0.123100696412
0.123103892017
0.123107260151
0.123110772659
0.123114396403
0.123118094833
0.123121829462
0.123125560699
0.123129248285
0.123132851937
0.123136332705
0.123139654691
0.123142786483
0.12314570133
0.12314837658
0.123150792794
0.123152934492
0.123154790961
0.123156358467
0.123157639225
0.12315864286
0.123159381792
0.123159875447
0.123160140744
0.123160204484
0.123160081488
0.12315980588
0.123159381886
0.123158849937
0.123158217128
0.123157415182
5.62389557186
3.14503944634
2.07151843612
1.50733168523
1.17081295297
0.951658850461
0.799521292981
0.688689347656
0.60486299227
0.539538133148
0.487378112261
0.444883134628
0.409672214648
0.380074475464
0.354885820957
0.333218383129
0.314404221493
0.297931909916
0.283403697972
0.270505906871
0.258988052152
0.248647850206
0.239320272435
0.230869435284
0.223182510261
0.216165094735
0.209737653388
0.203832754023
0.19839289909
0.193368808314
0.188718045918
0.184403913241
0.180394547334
0.176662180723
0.173182528263
0.169934275178
0.166898646402
0.164059042
0.161400726913
0.1589105659
0.156576796555
0.154388834753
0.152337107961
0.150412912709
0.148608293088
0.146915937601
0.14532909206
0.143841546483
0.142792671517
0.141771751716
0.140778774159
0.139813807702
0.138876925478
0.137968200723
0.137087702486
0.136235491238
0.135411614428
0.134616102049
0.133848962253
0.133110177065
0.132399698282
0.131717443582
0.131063292926
0.1304370853
0.129838615856
0.129267633506