/*--------------------------------*- C++ -*----------------------------------*\
  =========                 |
  \\      /  F ield         | OpenFOAM: The Open Source CFD Toolbox
   \\    /   O peration     | Website:  https://openfoam.org
    \\  /    A nd           | Version:  6
     \\/     M anipulation  |
\*---------------------------------------------------------------------------*/
FoamFile
{
    version     2.0;
    format      ascii;
    class       volScalarField;
    location    "0.261799";
    object      k_0;
}
// * * * * * * * * * * * * * * * * * * * * * * * * * * * * * * * * * * * * * //

dimensions      [0 2 -2 0 0 0 0];

internalField   nonuniform List<scalar> 
43264
(
5.81375617704
3.56309711011
2.71481499596
2.35334751853
2.18976331515
2.11361470732
2.07782774567
2.06108604403
2.0534086623
2.05003781913
2.04868719965
2.04825783487
2.04822557536
2.04834505012
2.04850549212
2.0486603374
2.04879291237
2.04889984368
2.04898316553
2.04904667598
2.0490943458
2.04912969926
2.049155639
2.04917446045
2.04918793601
2.04919741459
2.04920391431
2.04920820026
2.04921084655
2.04921228419
2.04921283731
2.04921275024
2.04921220758
2.04921134911
2.0492102808
2.04920908308
2.04920781692
2.04920652861
2.04920525301
2.04920401661
2.04920283893
2.04920173503
2.04920071511
2.04919978807
2.04919895771
2.04919823081
2.0491976048
2.04919709182
2.0492005768
2.04920306835
2.04920479813
2.04920592961
2.04920658759
2.04920687044
2.04920685883
2.04920661911
2.04920620596
2.04920566407
2.0492050291
2.0492043286
2.04920358312
2.04920280749
2.04920201229
2.04920120502
2.04920039124
2.04919957531
2.04919876088
2.04919795121
2.04919714926
2.04919635775
2.04919557918
2.04919481578
2.04919406953
2.04919334217
2.04919263523
2.04919195004
2.04919128778
2.04919064949
2.04919003608
2.04918944838
2.04918888716
2.04918835309
2.0491878468
2.04918736888
2.04918691984
2.0491865002
2.04918611039
2.04918575086
2.04918542198
2.04918512415
2.04918485769
2.04918462294
2.04918442018
2.04918424971
2.04918411178
2.04918400663
2.04918393449
2.04918389555
2.04918389002
2.04918391807
2.04918397985
2.0491840755
2.04918420516
2.04918436895
2.04918456697
2.04918479932
2.04918506608
2.04918536732
2.04918570311
2.04918607377
2.04918647902
2.04918691856
2.04918739279
2.04918790172
2.04918844533
2.04918902361
2.04918963653
2.04919028407
2.04919096618
2.0491916828
2.04919243387
2.0491932193
2.04919403901
2.0491948929
2.04919578085
2.04919670274
2.04919765844
2.04919864781
2.0491996707
2.04920072695
2.0492018164
2.04920293885
2.04920409413
2.04920528204
2.04920650237
2.04920775491
2.04920903944
2.04921035573
2.04921170355
2.04921308264
2.04921449277
2.04921593367
2.04921740508
2.04921890674
2.04922043837
2.04922199967
2.04922359038
2.04922521019
2.04922685881
2.04922853592
2.04923024123
2.04923197441
2.04923373516
2.04923552315
2.04923733805
2.04923917954
2.04924104729
2.04924294096
2.04924486022
2.04924680473
2.04924877416
2.04925076816
2.0492527864
2.04925482854
2.04925689423
2.04925898313
2.04926109491
2.04926322924
2.04926538576
2.04926756416
2.04926976409
2.04927198525
2.04927422729
2.0492764899
2.04927877278
2.04928107562
2.04928339811
2.04928573996
2.04928810091
2.04929048066
2.04929287896
2.04929529556
2.04929773024
2.04930018273
2.04930265292
2.04930514041
2.04930764546
2.04931016707
2.04931270676
2.04931526125
2.04931783659
2.04932041418
2.04931034674
2.04930734288
2.04930888877
2.04931316838
2.04931920031
2.04932636816
2.04933435572
2.04934298487
2.04935215651
2.0493618069
2.04937189356
2.04938238645
2.04939326394
2.04940450965
2.0494161102
2.04942805396
2.04944032954
2.04945292591
2.04946583048
2.04947903116
2.04949251274
2.04950626259
2.04952026245
2.04953450139
2.04954895648
2.04956362232
2.04957846693
2.04959349857
2.04960866686
2.04962401044
2.04963943943
2.04965505624
2.04967068645
2.04968656334
2.04970233573
2.04971850128
2.04973434827
2.04975089871
2.04976672442
2.04978386556
2.04979951043
2.0498176238
2.04983281553
2.04985255002
2.04986688611
2.04988922442
2.04990247151
2.04992843373
5.62861702036
3.16188842614
2.1078806661
1.5692082137
1.26226438447
1.0748631629
0.955107316342
0.876138270093
0.822879594172
0.786355525286
0.760988287282
0.743199367864
0.730634847995
0.721713594077
0.715354087426
0.710805417395
0.707540858831
0.705189326239
0.703489644244
0.702258655996
0.70136812327
0.700727756314
0.70027295016
0.699956293773
0.699742030237
0.699602657959
0.699516922313
0.699468588334
0.6994455748
0.6994392163
0.69944356383
0.699454721142
0.699470249321
0.699488672277
0.699509099573
0.699530963465
0.699553853276
0.699577422941
0.69960134845
0.699625314298
0.699649016165
0.699672168129
0.699694513601
0.699715830721
0.699735942649
0.69975471364
0.699772063171
0.699787939805
0.699798502701
0.699808594641
0.699818167013
0.699827187966
0.699835642719
0.699843532869
0.699850873012
0.699857687911
0.699864010566
0.699869881137
0.699875345909
0.699880455885
0.699885264909
0.699889826912
0.699894191923
0.69989840145
0.699902484685
0.69990645689
0.699910320214
0.699914066151
0.699917678476
0.699921135745
0.699924412983
0.699927482697
0.699930315647
0.699932881873
0.699935152269
0.699937100619
0.699938705723
0.699939953168
0.699940836441
0.699941357267
0.699941525262
0.69994135704
0.69994087496
0.699940105698
0.699939078778
0.699937825187
0.699936376152
0.699934762129
0.699933012031
0.699931152676
0.699929208426
0.699927200922
0.699925148872
0.699923067858
0.699920970192
0.699918864885
0.699916757825
0.699914652198
0.699912549172
0.699910448758
0.699908350709
0.699906255268
0.69990416361
0.699902077859
0.699900000733
0.69989793495
0.69989588263
0.699893844935
0.699891822091
0.699889813824
0.699887820047
0.699885841594
0.699883880831
0.699881941854
0.699880030291
0.699878152719
0.699876315917
0.699874526171
0.699872788802
0.699871107977
0.699869486775
0.699867927388
0.699866431339
0.699864999646
0.69986363292
0.699862331426
0.699861095161
0.69985992397
0.699858817662
0.699857776109
0.699856799245
0.699855886978
0.699855039012
0.699854254657
0.699853532704
0.699852871449
0.699852268896
0.699851723107
0.699851232624
0.699850796848
0.699850416248
0.699850092355
0.699849827513
0.699849624468
0.699849485893
0.699849413961
0.699849410063
0.69984947471
0.699849607609
0.699849807858
0.699850074214
0.69985040534
0.699850800013
0.699851257244
0.699851776325
0.699852356809
0.699852998447
0.699853701106
0.699854464689
0.699855289077
0.699856174093
0.699857119485
0.699858124931
0.699859190041
0.699860314366
0.699861497381
0.699862738469
0.699864036889
0.699865391743
0.699866801938
0.699868266169
0.699869782906
0.699871350402
0.699872966726
0.699874629811
0.699876337542
0.699878087849
0.69987987882
0.699881708797
0.699883576451
0.699885480777
0.699887421064
0.69988939672
0.699891407194
0.6998934516
0.699895528896
0.699897637076
0.699899774463
0.699901937086
0.699904124096
0.699906326656
0.699908554769
0.699915849114
0.699922892294
0.699929948449
0.699937360937
0.699945277805
0.699953782095
0.699962894222
0.699972630985
0.699982999306
0.699993986609
0.70000555794
0.700017660683
0.70003022772
0.700043184456
0.700056464223
0.700070027494
0.700083868009
0.700097990174
0.700112362296
0.700126883158
0.700141396256
0.70015575034
0.700169850193
0.700183662689
0.700197169962
0.700210336909
0.700223093187
0.700235375406
0.700247124613
0.700258334706
0.700268979877
0.700279092459
0.700288619407
0.700297628162
0.700306015393
0.700313952683
0.700321238259
0.700328248014
0.700334523019
0.700340845632
0.700346136928
0.7003521015
0.700356116664
0.700362277108
0.700363501587
0.700371196057
0.700363519314
0.700370588761
5.62401240421
3.14566647209
2.07344055866
1.51155473086
1.17844408267
0.963792675003
0.817154686969
0.712670096479
0.635866947901
0.578067372425
0.533772728999
0.499340299197
0.472267586051
0.4507828622
0.433599766385
0.419764635244
0.408558576088
0.399432801024
0.391964506611
0.385825635967
0.38075996686
0.376565893147
0.373083385476
0.370184190895
0.367764580195
0.365740052618
0.364041473668
0.362612204405
0.361405884694
0.360384641537
0.359517587031
0.358779537222
0.358149921617
0.3576118692
0.357151458947
0.356757119095
0.356419155071
0.356129383761
0.355880852228
0.355667621437
0.355484598915
0.355327407886
0.355192283358
0.35507598833
0.354975744621
0.354889174915
0.354814252766
0.354749259739
0.354706046836
0.354666286517
0.354629715268
0.354596097059
0.35456521881
0.354536889889
0.354510941065
0.354487222693
0.354465602679
0.354445964303
0.354428203761
0.354412227481
0.354397949332
0.354385287761
0.354374162822
0.354364493196
0.354356193553
0.354349172688
0.354343332689
0.35433856912
0.354334771998
0.354331827274
0.354329618567
0.354328029013
0.354326943181
0.354326249039
0.35432584
0.354325616961
0.35432549018
0.354325380838
0.354325222114
0.354324959701
0.354324551758
0.354323968332
0.354323190363
0.354322208352
0.354321020833
0.354319632737
0.354318053775
0.354316296904
0.354314376956
0.354312309479
0.354310109785
0.354307792226
0.354305369659
0.35430285309
0.354300251488
0.354297571753
0.354294818844
0.354291996053
0.35428910541
0.354286148176
0.354283125363
0.354280038198
0.354276888465
0.354273678658
0.354270411942
0.354267091951
0.354263722522
0.354260307454
0.354256850381
0.354253354775
0.354249824244
0.354246262642
0.354242674392
0.354239064655
0.354235439331
0.354231804893
0.354228168112
0.354224535739
0.354220914208
0.354217309439
0.354213726731
0.354210170743
0.354206645531
0.35420315459
0.354199700914
0.35419628704
0.354192915117
0.354189586981
0.35418630423
0.3541830683
0.354179880497
0.354176741989
0.354173653756
0.354170616525
0.354167630711
0.354164696437
0.35416181362
0.354158982149
0.354156202116
0.354153474041
0.354150799029
0.354148178821
0.354145615706
0.354143112331
0.354140671436
0.354138295596
0.354135987019
0.354133747427
0.354131578047
0.354129479683
0.35412745284
0.354125497869
0.354123615099
0.354121804936
0.35412006792
0.354118404738
0.354116816209
0.354115303252
0.354113866837
0.354112507949
0.354111227554
0.354110026575
0.354108905883
0.354107866285
0.354106908515
0.354106033219
0.35410524094
0.354104532087
0.354103906916
0.354103365498
0.354102907706
0.354102533206
0.354102241461
0.354102031757
0.354101903249
0.354101855031
0.354101886224
0.354101996077
0.354102184058
0.354102449931
0.354102793782
0.354103215993
0.354103717161
0.354104297972
0.35410495907
0.35410570089
0.35410652363
0.354107427076
0.354108410868
0.354109474056
0.354110616234
0.354111835341
0.354115110472
0.354119159318
0.354123991509
0.354129619152
0.35413608341
0.354143421652
0.354151669151
0.354160857422
0.354171011355
0.354182143892
0.354194254075
0.354207326695
0.354221331502
0.354236223518
0.354251947971
0.354268450158
0.354285682772
0.354303598736
0.35432212626
0.354341143534
0.354360478281
0.354379939225
0.354399353743
0.354418582329
0.354437501069
0.354455979366
0.354473871032
0.354491033983
0.354507346974
0.354522729818
0.354537122321
0.354550487273
0.35456276671
0.354573931165
0.354583922875
0.354592774794
0.354600456071
0.354607105765
0.354612664627
0.354617412066
0.354621128271
0.35462437487
0.354626465678
0.3546287149
0.354629003153
0.354630998276
0.354627988537
0.354628655001
5.62389911018
3.14512365638
2.07170196697
1.50770125464
1.1715125163
0.952876845486
0.801478122737
0.691623849842
0.609019812356
0.545157159966
0.494686419816
0.454089290388
0.420962520288
0.393610658388
0.370803832078
0.351628144137
0.335390275027
0.321554909047
0.309702566887
0.299500398102
0.290681387605
0.283029183925
0.276366824069
0.270548264336
0.265451989789
0.260976180542
0.25703503658
0.253555950562
0.250477291056
0.247746622856
0.24531924516
0.243156970057
0.241227092487
0.239501520233
0.237956041659
0.236569712983
0.235324348673
0.234204099492
0.233195103988
0.232285200593
0.231463689352
0.230721133861
0.230049195852
0.229440495918
0.228888495571
0.228387395911
0.227932050842
0.227517905581
0.227232204752
0.226960129214
0.226701169026
0.226454857378
0.226220748577
0.225998417406
0.225787457969
0.225587482301
0.22539811876
0.225219010248
0.225049812199
0.224890190354
0.22473981842
0.224598375657
0.224465544478
0.224341008174
0.224224448977
0.224115546642
0.224013977678
0.223919415195
0.223831529302
0.223749987943
0.223674458078
0.223604607129
0.223540104648
0.22348062415
0.223425845063
0.2233754547
0.223329150153
0.223286639983
0.223247645625
0.22321190243
0.223179160328
0.22314918412
0.223121753428
0.223096662349
0.223073718876
0.223052744154
0.223033571624
0.223016046123
0.223000022998
0.222985367261
0.222971952826
0.222959661839
0.222948384104
0.222938016617
0.222928463185
0.222919634138
0.222911446123
0.222903821956
0.22289669053
0.22288998675
0.222883651467
0.222877631386
0.22287187892
0.22286635195
0.222861013511
0.222855831395
0.222850777708
0.222845828418
0.222840962946
0.22283616449
0.222831417856
0.222826709978
0.22282203202
0.222817376573
0.222812738254
0.222808113471
0.22280350015
0.222798897435
0.222794305399
0.222789724781
0.222785156777
0.222780602876
0.222776064741
0.222771544129
0.222767042829
0.222762562618
0.222758105239
0.222753672388
0.222749265712
0.222744886825
0.222740537304
0.222736218694
0.222731932485
0.222727680088
0.222723462813
0.222719281854
0.22271513832
0.222711033289
0.222706967894
0.222702943428
0.222698961416
0.22269502367
0.222691132268
0.222687289498
0.222683497759
0.222679759438
0.222676076819
0.222672452001
0.222668886875
0.222665383132
0.222661942297
0.222658565788
0.222655254973
0.222652011216
0.222648835913
0.222645730509
0.222642696503
0.222639735435
0.22263684887
0.222634038383
0.222631305533
0.222628651852
0.222626078826
0.222623587888
0.222621180402
0.222618857654
0.222616620841
0.222614471053
0.222612409261
0.222610436303
0.222608552877
0.222606759529
0.222605056661
0.222603444542
0.222601923328
0.222600493103
0.222599153926
0.222597905887
0.222596749165
0.222595684073
0.222594711086
0.222593830843
0.222593044114
0.222592351751
0.222591754624
0.222591253566
0.222590849299
0.222590542477
0.222590333554
0.222590223032
0.222590211122
0.222590298335
0.222591335108
0.222593133098
0.22259575577
0.22259928032
0.222603776288
0.222609307883
0.222615932316
0.222623702047
0.222632662063
0.222642846712
0.22265427772
0.222666963
0.222680895092
0.222696050091
0.222712388915
0.222729861497
0.222748410549
0.222767968302
0.22278844308
0.222809703529
0.222831574935
0.222853854372
0.222876333819
0.222898814167
0.222921102102
0.222943000905
0.222964307399
0.22298482491
0.22300437925
0.223022833526
0.223040079121
0.223056028472
0.223070590662
0.223083691564
0.223095260265
0.223105286945
0.223113763048
0.223120776749
0.223126348685
0.223130663055
0.223133684911
0.223135747966
0.223136594615
0.22313691861
0.223135782818
0.223134893395
0.223131481763
0.223128836618
5.62389543153
3.14502344266
2.07150166012
1.50732623523
1.17083625893
0.951736996814
0.799689669442
0.688992356137
0.605353046781
0.540274176167
0.488423890416
0.446305427134
0.411539122538
0.382453822481
0.3578436998
0.336817889719
0.318704428439
0.302987119105
0.289262979262
0.277212889111
0.266580902354
0.25715936809
0.248778040431
0.241295988913
0.23459551873
0.228577557807
0.223158125462
0.218265602251
0.213838594041
0.209824237852
0.206176838378
0.202856755422
0.199829485522
0.197064897269
0.194536590911
0.192221360108
0.190098738563
0.188150617563
0.186360922903
0.18471534157
0.183201090115
0.181806717996
0.18052194019
0.179337494399
0.178245018771
0.177236946935
0.176306417429
0.175447229491
0.174848068054
0.174271247182
0.173716303358
0.173182828245
0.172670423357
0.172178698593
0.1717072706
0.171255760969
0.170823794342
0.17041099646
0.170016992143
0.169641403225
0.169283846505
0.168943931736
0.168621259711
0.168315420489
0.168025991885
0.167752538339
0.16749461024
0.167251743737
0.167023460997
0.166809270897
0.166608670079
0.166421144345
0.166246170351
0.166083217571
0.165931750478
0.165791230896
0.165661120436
0.165540882936
0.165429986831
0.165327907392
0.165234128784
0.165148145918
0.165069466094
0.164997610405
0.164932114946
0.164872531806
0.164818429882
0.164769395522
0.164725033028
0.164684965022
0.164648832705
0.164616296003
0.164587033628
0.16456074304
0.164537140337
0.164515960052
0.164496954892
0.164479895398
0.164464569537
0.164450782234
0.164438354834
0.164427124491
0.164416943489
0.164407678485
0.164399209692
0.164391429995
0.164384244046
0.164377567341
0.164371325324
0.16436545466
0.164359896408
0.16435459802
0.164349519125
0.164344623071
0.164339878718
0.164335259848
0.164330744582
0.164326314816
0.164321955694
0.164317655124
0.16431340335
0.164309192574
0.164305016641
0.164300870761
0.164296751283
0.164292655488
0.164288581431
0.164284527797
0.16428049379
0.164276479042
0.164272483539
0.164268507555
0.164264551595
0.164260616338
0.164256702591
0.164252811244
0.16424894325
0.164245099619
0.164241281435
0.16423748988
0.164233726265
0.164229992048
0.164226288833
0.164222618352
0.164218982423
0.164215382905
0.164211821648
0.164208300454
0.164204821058
0.164201385115
0.164197994213
0.164194649886
0.164191353636
0.16418810695
0.164184911317
0.164181768239
0.164178679235
0.164175645835
0.164172669579
0.164169752008
0.16416689465
0.164164099016
0.164161366584
0.164158698795
0.164156097047
0.164153562683
0.164151096987
0.164148701178
0.164146376402
0.164144123728
0.164141944139
0.164139838533
0.164137807723
0.164135852433
0.164133973318
0.164132170968
0.164130445932
0.164128798745
0.164127229947
0.164125740115
0.164124329874
0.16412299991
0.16412175097
0.164120583844
0.164119499357
0.164118498343
0.164117581647
0.16411675008
0.164116004488
0.164115345599
0.164114774359
0.164114290995
0.164113522409
0.164113445806
0.164114117852
0.164115594663
0.164117936983
0.16412120381
0.164125451731
0.164130733381
0.16413709558
0.164144577005
0.164153206501
0.164163001608
0.164173966902
0.164186092556
0.164199354152
0.164213714195
0.164229123741
0.164245520651
0.164262822411
0.164280917053
0.164299659822
0.164318880209
0.164338394943
0.164358018093
0.164377562889
0.164396839448
0.164415655135
0.16443382336
0.164451175455
0.164467570954
0.16448289435
0.164497048479
0.164509941357
0.164521494928
0.16453164505
0.164540370071
0.164547669188
0.164553598641
0.164558202335
0.164561600941
0.164563835897
0.164565101211
0.164565361757
0.16456495032
0.164563591031
0.164561935917
0.164559225349
0.164556064331
5.62389604524
3.14508641112
2.07158431569
1.50740351009
1.17088620076
0.951733469173
0.799600660895
0.68877975287
0.604973418215
0.539680121218
0.487565599365
0.445132217806
0.410000843201
0.380502087635
0.355432948217
0.333906246462
0.31525434344
0.298965762443
0.28464239891
0.2719699683
0.26069717559
0.25062075864
0.241574568995
0.2334214817
0.226047322878
0.219356259514
0.213267262818
0.207711368136
0.202629530715
0.197970930338
0.193691616589
0.189753414798
0.186123033528
0.182771329696
0.179672698511
0.176804563479
0.174146947535
0.171682110655
0.169394242442
0.167269200573
0.165294287768
0.163458061346
0.161750170497
0.160161217197
0.158682637374
0.157306599367
0.156025917329
0.154834024831
0.153998038954
0.153188616936
0.152405479406
0.151648412326
0.150917204838
0.150211646668
0.149531525405
0.14887662373
0.148246716606
0.147641568484
0.147060930524
0.146504537874
0.145972107057
0.145463333492
0.144977889213
0.144515420823
0.144075547769
0.143657860992
0.143261922022
0.142887262532
0.142533384367
0.142199760028
0.141885833614
0.141591022196
0.141314717604
0.141056288605
0.140815083433
0.140590432627
0.140381652117
0.140188046479
0.140008912311
0.139843541655
0.139691225399
0.139551256627
0.139422933859
0.139305564143
0.139198465975
0.139100972013
0.139012431567
0.138932212851
0.138859704981
0.138794319718
0.138735492949
0.138682685903
0.138635386106
0.138593108081
0.138555393803
0.138521812911
0.138491962702
0.138465467916
0.138441980328
0.138421178169
0.138402765382
0.138386470748
0.138372046873
0.138359269076
0.138347934187
0.13833785927
0.138328880308
0.138320850868
0.138313640772
0.13830713837
0.138301239152
0.138295849314
0.138290895217
0.13828630939
0.138282033513
0.138278017465
0.138274218407
0.138270599923
0.138267131218
0.138263786389
0.13826054376
0.138257385298
0.138254296092
0.138251263892
0.138248278708
0.138245332465
0.138242418694
0.138239532274
0.138236669209
0.138233826443
0.138231001696
0.138228193333
0.138225400248
0.13822262176
0.138219857531
0.138217107489
0.138214371776
0.138211650708
0.138208944744
0.138206254479
0.138203580636
0.138200924059
0.138198285701
0.138195666615
0.138193067922
0.138190490791
0.138187936413
0.138185405979
0.138182900665
0.138180421625
0.13817796999
0.138175546874
0.138173153375
0.138170790586
0.138168459599
0.13816616151
0.13816389742
0.138161668431
0.138159475652
0.138157320185
0.138155203126
0.13815312556
0.138151088553
0.13814909315
0.13814714037
0.138145231204
0.138143366608
0.138141547504
0.138139774777
0.138138049269
0.138136371781
0.138134743066
0.138133163833
0.138131634747
0.138130156426
0.138128729453
0.138127354378
0.138126031726
0.138124762012
0.138123545748
0.138122383454
0.138121275664
0.138120222934
0.138119225839
0.138118284974
0.138117400954
0.138116574407
0.138115805981
0.138115096318
0.138114446092
0.138113855946
0.138113326411
0.138112330935
0.138111790666
0.138111748513
0.138112250222
0.138113340642
0.138115063906
0.138117462312
0.13812057573
0.138124440157
0.138129086245
0.138134538112
0.138140812286
0.13814791654
0.138155848834
0.138164596804
0.138174138016
0.138184440277
0.138195460389
0.138207140393
0.138219402963
0.138232149654
0.138245264364
0.138258620149
0.138272085141
0.13828552476
0.138298801876
0.138311778177
0.138324319642
0.138336303792
0.138347625874
0.138358197988
0.138367945524
0.138376800769
0.138384707249
0.138391621443
0.138397527043
0.138402425679
0.138406352379
0.138409342687
0.138411472096
0.138412783181
0.138413391056
0.138413307335
0.13841270896
0.138411506542
0.138409992083
0.138407935104
0.138405400565
5.62389552448
3.14503252751
2.07150902129
1.5073214288
1.17080272969
0.951649427478
0.799513503137
0.688684250626
0.604862007864
0.539543141717
0.487391525338
0.444907940174
0.409711996746
0.380133407584
0.354968633497
0.333330308636
0.314550923238
0.298119400613
0.283638254947
0.270793988251
0.25933621645
0.249062679828
0.239808300737
0.231437076803
0.223835994422
0.216910403989
0.210580467131
0.204778399543
0.199446310287
0.194534492312
0.190000057104
0.185805833913
0.181919474024
0.178312715347
0.174960773509
0.171841833742
0.16893662395
0.166228053845
0.163700908474
0.161341586993
0.159137879508
0.157078776222
0.155154304223
0.15335538809
0.151673731065
0.150101714047
0.148632310032
0.147259067002
0.146292961773
0.145354724276
0.144444225996
0.14356141195
0.142706229175
0.141878623218
0.141078534534
0.140305894826
0.139560623358
0.138842623301
0.138151778131
0.137487948139
0.136850967092
0.136240639096
0.135656735718
0.135098993408
0.134567111283
0.134060749342
0.133579527139
0.133123022964
0.132690773542
0.132282274261
0.131896979924
0.131534306027
0.131193630544
0.130874296193
0.13057561316
0.13029686223
0.130037298276
0.129796154043
0.129572644161
0.129365969321
0.129175320547
0.128999883503
0.128838842767
0.128691386015
0.128556708069
0.128434014749
0.128322526497
0.128221481723
0.128130139857
0.128047784073
0.127973723674
0.127907296116
0.127847868687
0.12779483981
0.127747640016
0.127705732556
0.127668613712
0.127635812791
0.127606891843
0.127581445131
0.127559098362
0.127539507733
0.127522358785
0.12750736513
0.127494267042
0.127482829972
0.127472842998
0.127464117232
0.127456484236
0.12744979901
0.127443925491
0.127438741217
0.127434149358
0.127430060912
0.127426398526
0.127423095305
0.127420093673
0.127417344302
0.12741480513
0.127412440449
0.127410220091
0.127408118688
0.127406115012
0.127404191395
0.127402333207
0.127400528407
0.127398767147
0.127397041424
0.127395344786
0.127393672081
0.127392019233
0.127390383064
0.127388761133
0.1273871516
0.127385553119
0.127383964734
0.12738238581
0.127380815965
0.127379255029
0.127377703003
0.127376160036
0.127374626403
0.127373102483
0.127371588742
0.127370085713
0.127368593978
0.127367114149
0.127365646856
0.127364192736
0.127362752427
0.127361326566
0.127359915785
0.127358520718
0.127357141997
0.127355780255
0.127354436128
0.127353110255
0.127351803277
0.127350515834
0.127349248566
0.127348002108
0.12734677709
0.127345574132
0.127344393845
0.127343236826
0.127342103659
0.127340994913
0.127339911139
0.127338852871
0.127337820622
0.127336814888
0.127335836139
0.127334884827
0.12733396138
0.127333066203
0.127332199685
0.127331362193
0.12733055408
0.12732977569
0.127329027359
0.127328309422
0.127327622217
0.127326966085
0.127326341377
0.12732574845
0.127325187671
0.127324659419
0.127324164071
0.12732370203
0.127323273665
0.127322879427
0.127322519491
0.127321772277
0.127321283823
0.127321079114
0.127321183151
0.127321621854
0.12732242071
0.127323604434
0.127325196356
0.127327217686
0.127329686706
0.127332618129
0.12733602251
0.127339905613
0.127344267792
0.127349103555
0.127354401412
0.127360143708
0.127366305787
0.127372854133
0.127379744241
0.127386919902
0.127394314923
0.127401856475
0.12740946814
0.127417071408
0.127424586258
0.127431932296
0.127439031689
0.12744581293
0.12745221398
0.127458182251
0.127463673044
0.127468647019
0.127473072093
0.127476924944
0.127480196894
0.127482890728
0.127485025698
0.127486624924
0.127487728673
0.12748836771
0.127488599823
0.127488447712
0.127487990298
0.127487218938
0.127486239599
0.127485030304
0.127483486282
5.62389590983
3.14507787061
2.07157257891
1.50738960992
1.17086932027
0.951711281813
0.799568958536
0.68873219447
0.604901396248
0.539572738123
0.487409751788
0.444912785004
0.40970096376
0.380103502788
0.35491638668
0.33325182373
0.314441948564
0.297975409258
0.283454526872
0.270565688514
0.259058466935
0.248730624244
0.239417163784
0.230982218484
0.223312959873
0.216314968526
0.209908675799
0.204026600429
0.19861118124
0.193613061155
0.188989715864
0.184704347853
0.180724986334
0.17702374823
0.173576226221
0.170360977946
0.167359096533
0.16455384727
0.161930358657
0.159475358714
0.157176949408
0.155024413495
0.153008049221
0.151119029096
0.149349279596
0.147691379075
0.146138471554
0.144684252853
0.143659665664
0.142663163336
0.141694698725
0.14075430331
0.1398420114
0.138957856156
0.138101865491
0.13727405789
0.136474438204
0.135702993457
0.134959688717
0.134244463087
0.133557225865
0.132897852931
0.132266183421
0.131662016741
0.131085109967
0.130535175709
0.130011880452
0.129514843443
0.129043636118
0.128597782115
0.128176757859
0.127779993719
0.127406875734
0.127056747887
0.126728914872
0.126422645357
0.126137175636
0.125871713668
0.125625443388
0.125397529255
0.125187120954
0.124993358178
0.124815375426
0.124652306747
0.124503290364
0.124367473124
0.124244014706
0.124132091566
0.124030900543
0.123939662129
0.123857623352
0.123784060264
0.123718280033
0.123659622619
0.123607462049
0.123561207309
0.123520302851
0.123484228754
0.12345250056
0.123424668805
0.123400318286
0.123379067095
0.123360565445
0.123344494334
0.123330564059
0.123318512638
0.123308104148
0.123299127025
0.123291392342
0.123284737207
0.123279008588
0.123274068534
0.123269807705
0.12326612544
0.123262934061
0.123260157555
0.123257730319
0.123255595981
0.123253706314
0.123252020237
0.123250502913
0.123249124926
0.123247861553
0.123246692111
0.123245599377
0.123244569083
0.123243589467
0.123242650882
0.123241745468
0.123240866852
0.123240009907
0.123239170538
0.123238345501
0.123237532254
0.123236728821
0.123235933693
0.123235145734
0.12323436411
0.12323358823
0.123232817701
0.123232052289
0.123231291891
0.123230536509
0.12322978623
0.123229041205
0.123228301635
0.123227567757
0.123226839833
0.123226118139
0.123225402963
0.123224694601
0.123223993353
0.123223299521
0.123222613411
0.123221935333
0.123221265597
0.123220604519
0.123219952411
0.12321930959
0.12321867637
0.123218053065
0.123217439986
0.12321683744
0.123216245729
0.123215665153
0.123215096001
0.12321453856
0.123213993107
0.123213459913
0.123212939239
0.123212431337
0.123211936453
0.12321145482
0.123210986662
0.123210532193
0.123210091619
0.123209665137
0.123209252935
0.123208855197
0.123208472103
0.12320810383
0.123207750555
0.123207412457
0.123207089716
0.123206782513
0.123206491036
0.12320621547
0.12320595601
0.123205712844
0.123205486175
0.123205276179
0.123205083027
0.12320467812
0.123204397571
0.123204253779
0.12320425983
0.123204428695
0.123204773226
0.123205305815
0.123206038153
0.123206980845
0.123208143058
0.123209532245
0.123211153927
0.123213011453
0.123215105714
0.123217434865
0.123219994072
0.123222775211
0.123225766305
0.123228950632
0.123232305851
0.123235803824
0.123239411503
0.123243092503
0.123246808549
0.123250520283
0.123254187691
0.123257770751
0.123261230802
0.123264532256
0.123267644
0.123270539541
0.123273196429
0.123275595398
0.123277721126
0.123279563066
0.123281117626
0.123282387126
0.123283381229
0.123284112351
0.123284599852
0.12328486059
0.123284921219
0.123284796491
0.123284520307
0.123284096875
0.123283566319
0.12328293576
0.123282136962
5.62389561703
3.14503951806
2.07151849007
1.50733174028
1.17081301663
0.951658920631
0.799521367108
0.688689423599
0.60486306757
0.539538205177
0.487378178831
0.444883194396
0.40967226712
0.380074520689
0.354885859117
0.333218414237
0.314404245279
0.297931925906
0.283403705703
0.270505906171
0.258988043453
0.24864783488
0.239320253191
0.230869416666
0.223182499293
0.216165101742
0.209737692985
0.20383284625
0.198393070634
0.193369093747
0.18871848887
0.184404567413
0.180395477291
0.176663462379
0.17318424903
0.169936533725
0.166901552042
0.164062713698
0.161405291957
0.158916158287
0.15658355515
0.154396901291
0.15234662497
0.150424021421
0.148621131417
0.146930638231
0.145345780716
0.143860340279
0.142813082498
0.141793874413
0.140802703948
0.13983964015
0.138904755763
0.137998123022
0.137119809323
0.136269872815
0.135448357936
0.134655290969
0.133890675655
0.133154488922
0.132446676792
0.131767150528
0.131115783067
0.130492405811
0.12989680583
0.129328723517
0.128787850753
0.128273829622