/*--------------------------------*- C++ -*----------------------------------*\
  =========                 |
  \\      /  F ield         | OpenFOAM: The Open Source CFD Toolbox
   \\    /   O peration     | Website:  https://openfoam.org
    \\  /    A nd           | Version:  6
     \\/     M anipulation  |
\*---------------------------------------------------------------------------*/
FoamFile
{
    version     2.0;
    format      ascii;
    class       volScalarField;
    location    "0.261799";
    object      nut;
}
// * * * * * * * * * * * * * * * * * * * * * * * * * * * * * * * * * * * * * //

dimensions      [0 2 -1 0 0 0 0];

internalField   nonuniform List<scalar> 
43264
(
0.00350614640258
0.00340667729281
0.00336281953603
0.00335326970422
0.00335921377458
0.00336966592479
0.00337981459061
0.00338811835383
0.00339441665646
0.00339901372631
0.00340230158773
0.00340462869156
0.00340626824176
0.00340742229146
0.0034082357636
0.00340881088791
0.00340921915081
0.00340951034704
0.00340971913559
0.00340986967225
0.00340997883804
0.00341005847258
0.00341011691444
0.00341016006316
0.00341019211282
0.00341021606018
0.00341023405781
0.00341024766043
0.00341025799743
0.00341026589407
0.00341027195709
0.00341027663517
0.00341028026213
0.00341028308767
0.00341028529956
0.00341028703973
0.00341028841588
0.00341028951016
0.00341029038544
0.00341029109008
0.00341029166133
0.00341029212817
0.00341029251299
0.00341029283352
0.00341029310331
0.00341029333365
0.00341029353249
0.00341029370845
0.00341029433521
0.00341029478213
0.00341029509568
0.00341029530843
0.00341029544468
0.00341029552324
0.00341029555905
0.00341029556387
0.00341029554676
0.00341029551439
0.00341029547139
0.00341029542083
0.00341029536463
0.00341029530405
0.00341029524005
0.00341029517348
0.00341029510521
0.00341029503612
0.00341029496707
0.0034102948988
0.00341029483195
0.00341029476698
0.00341029470425
0.00341029464396
0.00341029458627
0.00341029453124
0.00341029447892
0.00341029442933
0.00341029438247
0.00341029433834
0.00341029429694
0.00341029425827
0.00341029422231
0.00341029418906
0.00341029415851
0.00341029413066
0.00341029410549
0.00341029408302
0.00341029406324
0.00341029404615
0.00341029403176
0.00341029402007
0.00341029401108
0.0034102940048
0.00341029400121
0.00341029400031
0.0034102940021
0.00341029400657
0.0034102940137
0.00341029402347
0.00341029403587
0.00341029405087
0.00341029406844
0.00341029408857
0.00341029411122
0.00341029413638
0.00341029416402
0.00341029419411
0.00341029422664
0.00341029426158
0.00341029429891
0.0034102943387
0.00341029438083
0.00341029442516
0.0034102944718
0.00341029452074
0.00341029457195
0.00341029462543
0.00341029468116
0.00341029473913
0.00341029479933
0.00341029486176
0.0034102949264
0.00341029499323
0.00341029506224
0.00341029513343
0.00341029520677
0.00341029528226
0.00341029535987
0.00341029543959
0.00341029552142
0.00341029560532
0.00341029569129
0.00341029577931
0.00341029586936
0.00341029596143
0.0034102960555
0.00341029615154
0.00341029624954
0.00341029634949
0.00341029645135
0.00341029655512
0.00341029666077
0.00341029676829
0.00341029687766
0.00341029698886
0.00341029710188
0.00341029721668
0.00341029733327
0.00341029745161
0.00341029757169
0.00341029769348
0.00341029781697
0.00341029794213
0.00341029806893
0.00341029819737
0.00341029832741
0.00341029845903
0.00341029859221
0.00341029872694
0.00341029886318
0.00341029900092
0.00341029914013
0.0034102992808
0.0034102994229
0.00341029956641
0.00341029971131
0.00341029985758
0.00341030000519
0.00341030015413
0.00341030030437
0.00341030045589
0.00341030060868
0.0034103007627
0.00341030091795
0.0034103010744
0.00341030123204
0.00341030139083
0.00341030155078
0.00341030171185
0.00341030187404
0.00341030203733
0.0034103022017
0.00341030236715
0.00341030253367
0.00341030270124
0.00341030286987
0.00341030303951
0.00341030321024
0.00341030338192
0.00341030355478
0.00341030372838
0.00341030390359
0.00341030407702
0.0034103024681
0.00341030196934
0.00341030208652
0.00341030251299
0.00341030310317
0.00341030377854
0.00341030450204
0.00341030525206
0.00341030601612
0.00341030678703
0.00341030756144
0.00341030833836
0.00341030911806
0.00341030990141
0.00341031068946
0.0034103114833
0.00341031228385
0.00341031309189
0.00341031390778
0.00341031473173
0.00341031556342
0.00341031640274
0.00341031724882
0.00341031810158
0.00341031895948
0.00341031982294
0.00341032068931
0.00341032156056
0.003410322432
0.00341032330907
0.00341032418265
0.00341032506522
0.00341032593813
0.00341032682822
0.0034103276972
0.00341032860065
0.00341032946076
0.00341033038962
0.0034103312318
0.00341033220811
0.003410333015
0.00341033407681
0.00341033481711
0.00341033602678
0.00341033665188
0.00341033810025
0.00341033856815
0.00341034033972
0.00350197916914
0.00337893463333
0.00328980985758
0.00322623087415
0.00318301254627
0.00315604320518
0.00314154502888
0.00313606752338
0.00313667359181
0.00314105617466
0.00314753128193
0.00315494690297
0.00316256115553
0.00316992601857
0.00317679294698
0.00318304330066
0.0031886400632
0.00319359548336
0.00319794974197
0.00320175699607
0.00320507636923
0.00320796634253
0.00321048153668
0.00321267116524
0.00321457859941
0.00321624159859
0.0032176928689
0.00321896071942
0.0032200696833
0.00322104104718
0.00322189328179
0.00322264239187
0.00322330220947
0.00322388465155
0.00322439995452
0.00322485689134
0.00322526297188
0.00322562462489
0.00322594736007
0.00322623590919
0.0032264943473
0.00322672619463
0.00322693450298
0.00322712192637
0.00322729078242
0.00322744309953
0.00322758066323
0.00322770503706
0.00322779032433
0.00322787124231
0.00322794797006
0.00322802067881
0.00322808953781
0.00322815471392
0.0032282163706
0.00322827466701
0.00322832975746
0.00322838179127
0.00322843091265
0.00322847726066
0.00322852096902
0.00322856216588
0.00322860097315
0.00322863750575
0.00322867187097
0.00322870416855
0.00322873449137
0.00322876292667
0.00322878955724
0.00322881446242
0.0032288377187
0.00322885940008
0.00322887957822
0.00322889832269
0.0032289157013
0.00322893178061
0.00322894662636
0.00322896030387
0.00322897287813
0.00322898441381
0.00322899497493
0.00322900462455
0.0032290134243
0.00322902143399
0.00322902871122
0.00322903531106
0.00322904128584
0.00322904668503
0.00322905155511
0.00322905593967
0.00322905987942
0.00322906341227
0.00322906657347
0.00322906939563
0.00322907190882
0.00322907414065
0.00322907611641
0.00322907785926
0.00322907939047
0.00322908072972
0.00322908189541
0.00322908290485
0.00322908377445
0.0032290845197
0.00322908515511
0.00322908569402
0.00322908614851
0.00322908652932
0.0032290868459
0.00322908710652
0.00322908731882
0.00322908749005
0.00322908762678
0.0032290877355
0.00322908782252
0.00322908789371
0.00322908795444
0.00322908800934
0.00322908806228
0.00322908811636
0.00322908817402
0.00322908823719
0.00322908830735
0.00322908838569
0.00322908847315
0.00322908857044
0.00322908867812
0.0032290887966
0.00322908892622
0.0032290890673
0.00322908922009
0.00322908938484
0.00322908956166
0.00322908975054
0.0032290899513
0.00322909016355
0.00322909038686
0.00322909062075
0.00322909086488
0.00322909111913
0.00322909138365
0.00322909165887
0.00322909194536
0.00322909224376
0.00322909255461
0.00322909287828
0.00322909321482
0.00322909356406
0.00322909392557
0.00322909429879
0.00322909468309
0.00322909507788
0.00322909548262
0.00322909589689
0.00322909632036
0.0032290967528
0.00322909719403
0.0032290976439
0.00322909810226
0.00322909856894
0.00322909904374
0.00322909952644
0.00322910001681
0.00322910051456
0.00322910101943
0.00322910153113
0.00322910204934
0.00322910257374
0.00322910310396
0.00322910363961
0.00322910418024
0.00322910472536
0.00322910527446
0.00322910582697
0.00322910638232
0.00322910693993
0.00322910749925
0.00322910805979
0.0032291086211
0.00322910918285
0.00322910974476
0.00322911030663
0.00322911086826
0.00322911142943
0.00322911198982
0.00322911254904
0.00322911310639
0.00322911366136
0.00322911421262
0.00322911476007
0.00322911530072
0.00322911583893
0.00322911751756
0.00322911895567
0.00322912029984
0.00322912168282
0.00322912315217
0.00322912472996
0.00322912641539
0.0032291282052
0.00322913009218
0.00322913206329
0.00322913409956
0.00322913617829
0.00322913827408
0.00322914036063
0.00322914241477
0.0032291444218
0.00322914637777
0.0032291482842
0.0032291501364
0.00322915191516
0.00322915359065
0.0032291551381
0.00322915654952
0.00322915783373
0.00322915900204
0.00322916006051
0.00322916100464
0.00322916183292
0.00322916254284
0.00322916314725
0.00322916364822
0.00322916406751
0.00322916439484
0.0032291646633
0.00322916484153
0.00322916499515
0.00322916505058
0.00322916513951
0.00322916509082
0.00322916517521
0.00322916500263
0.00322916516225
0.00322916474052
0.00322916513522
0.00322916397659
0.00322916506349
0.0032291613606
0.00322916284011
0.00350207315455
0.00337847187286
0.00328624942676
0.00321509748434
0.00315894854674
0.0031141818978
0.00307852834668
0.00305044612332
0.00302877661377
0.00301256388253
0.00300096849721
0.00299323266152
0.00298867011948
0.00298666564352
0.00298667660034
0.00298823358923
0.00299093920105
0.00299446465259
0.0029985443384
0.00300296864911
0.003007575726
0.00301224299815
0.00301687928586
0.0030214179989
0.0030258116334
0.0030300274989
0.00303404445004
0.00303785035706
0.00304144008895
0.00304481385418
0.00304797581241
0.00305093291628
0.0030536939654
0.00305626885871
0.00305866802751
0.00306090202509
0.00306298124474
0.00306491573769
0.00306671510493
0.00306838844098
0.00306994431288
0.00307139076187
0.003072735319
0.00307398502875
0.0030751464763
0.00307622581627
0.00307722880074
0.00307816077197
0.003078813787
0.00307944528843
0.0030800555754
0.00308064491959
0.0030812136053
0.00308176192928
0.0030822902004
0.00308279873856
0.00308328787369
0.00308375794462
0.00308420929792
0.00308464228662
0.00308505726892
0.00308545460692
0.00308583466531
0.00308619781009
0.00308654440746
0.00308687482332
0.00308718942338
0.00308748857395
0.00308777264315
0.00308804200225
0.0030882970271
0.00308853809925
0.00308876560702
0.00308897994637
0.00308918152158
0.00308937074582
0.00308954804145
0.00308971383996
0.00308986858144
0.00309001271365
0.00309014669065
0.00309027097097
0.00309038601562
0.00309049228588
0.00309059024097
0.00309068033581
0.00309076301883
0.00309083872996
0.00309090789881
0.00309097094311
0.00309102826736
0.00309108026175
0.00309112730128
0.00309116974511
0.00309120793604
0.00309124220027
0.00309127284727
0.00309130016986
0.00309132444446
0.00309134593144
0.00309136487562
0.0030913815067
0.00309139603982
0.00309140867589
0.00309141960198
0.00309142899158
0.0030914370049
0.00309144378928
0.00309144947961
0.00309145419688
0.00309145805503
0.00309146115887
0.00309146359854
0.0030914654581
0.00309146681368
0.00309146773402
0.00309146828086
0.0030914685093
0.00309146846823
0.00309146820069
0.00309146774436
0.00309146713209
0.00309146639238
0.00309146554983
0.00309146462567
0.00309146363806
0.00309146260256
0.00309146153243
0.00309146043894
0.00309145933173
0.00309145821896
0.00309145710755
0.00309145600328
0.00309145491092
0.00309145383428
0.00309145277637
0.00309145173952
0.00309145072562
0.00309144973629
0.00309144877316
0.00309144783795
0.0030914469326
0.00309144605918
0.00309144521984
0.00309144441658
0.00309144365117
0.00309144292494
0.00309144223883
0.00309144159333
0.0030914409886
0.00309144042458
0.00309143990108
0.00309143941792
0.00309143897499
0.00309143857226
0.00309143820985
0.00309143788795
0.00309143760683
0.00309143736677
0.00309143716807
0.00309143701099
0.00309143689578
0.00309143682261
0.00309143679162
0.00309143680289
0.00309143685646
0.0030914369523
0.00309143709027
0.0030914372702
0.00309143749176
0.00309143775453
0.00309143805799
0.00309143840149
0.0030914387843
0.00309143920564
0.0030914396647
0.00309144016072
0.00309144069306
0.00309144126121
0.00309144186489
0.00309144250401
0.00309144317867
0.0030914438891
0.00309144463557
0.00309144541826
0.00309144623721
0.00309144709229
0.003091447983
0.00309144890886
0.0030914498688
0.00309145086249
0.00309145188806
0.00309145446081
0.00309145741115
0.00309146072495
0.00309146439471
0.00309146843776
0.00309147286964
0.00309147770532
0.00309148295785
0.00309148863653
0.00309149474313
0.00309150127072
0.00309150820365
0.00309151551717
0.00309152317769
0.00309153114634
0.00309153938588
0.00309154786605
0.00309155655936
0.00309156542508
0.00309157439355
0.00309158336716
0.00309159224207
0.00309160093251
0.00309160937849
0.00309161753175
0.00309162534003
0.00309163274069
0.00309163967411
0.00309164609323
0.00309165197677
0.00309165731287
0.00309166210369
0.00309166633319
0.00309167000558
0.00309167309837
0.00309167565255
0.00309167764981
0.00309167919521
0.00309168023088
0.0030916809564
0.00309168117858
0.00309168130701
0.00309168078564
0.0030916805985
0.00309167909972
0.00309167907192
0.00309167539008
0.00309167478194
0.00350208433068
0.00337850742859
0.00328620223357
0.00321459139593
0.00315724537769
0.00311018494171
0.00307087105027
0.00303763035459
0.00300932291233
0.00298514405707
0.0029645029198
0.00294694638971
0.00293211087574
0.00291969153211
0.00290942277759
0.0029010663667
0.00289440460374
0.002889236954
0.00288537865896
0.00288266026494
0.0028809273296
0.00288003994278
0.0028798719987
0.00288031032349
0.00288125379491
0.00288261253972
0.00288430721975
0.00288626836541
0.00288843570051
0.00289075741883
0.00289318940245
0.00289569439932
0.00289824119303
0.00290080380138
0.00290336073323
0.00290589432287
0.00290839014949
0.00291083654075
0.00291322415363
0.00291554562291
0.00291779526693
0.00291996884074
0.00292206332809
0.00292407676454
0.00292600808602
0.00292785699701
0.00292962385624
0.00293130953737
0.00293251345133
0.00293369939018
0.00293486636471
0.00293601339736
0.00293713956309
0.00293824399087
0.00293932586426
0.00294038442178
0.00294141895682
0.00294242881751
0.00294341340614
0.0029443721784
0.00294530464237
0.00294621035742
0.00294708893306
0.002947940028
0.00294876334945
0.00294955865316
0.00295032574419
0.00295106447836
0.00295177476419
0.0029524565652
0.0029531099021
0.00295373485512
0.00295433156593
0.00295490023939
0.00295544114488
0.00295595461709
0.00295644105625
0.00295690092752
0.00295733475946
0.00295774314162
0.00295812672114
0.00295848619859
0.00295882232294
0.00295913588605
0.00295942771664
0.00295969867397
0.00295994964146
0.0029601815202
0.0029603952227
0.00296059166688
0.00296077177029
0.00296093644489
0.00296108659214
0.00296122309859
0.002961346832
0.00296145863784
0.0029615593364
0.0029616497203
0.00296173055247
0.00296180256456
0.00296186645571
0.00296192289171
0.00296197250433
0.00296201589094
0.00296205361429
0.00296208620245
0.00296211414903
0.00296213791349
0.00296215792183
0.0029621745628
0.00296218820255
0.00296219917893
0.00296220779025
0.00296221431316
0.00296221899903
0.00296222207553
0.0029622237481
0.00296222420137
0.00296222360054
0.00296222209282
0.00296221980876
0.00296221686369
0.00296221335904
0.00296220938368
0.00296220501519
0.00296220032105
0.00296219535975
0.00296219018181
0.00296218483079
0.00296217934412
0.00296217375394
0.00296216808774
0.00296216236902
0.00296215661778
0.00296215085094
0.00296214508283
0.00296213932551
0.00296213358926
0.0029621278829
0.00296212221423
0.00296211659034
0.00296211101784
0.00296210550297
0.00296210005171
0.00296209466965
0.00296208936195
0.00296208413326
0.00296207898767
0.00296207392871
0.00296206895944
0.00296206408251
0.00296205930028
0.00296205461499
0.00296205002875
0.00296204554372
0.00296204116208
0.00296203688604
0.00296203271788
0.00296202865988
0.00296202471431
0.00296202088342
0.00296201716937
0.00296201357428
0.00296201010012
0.00296200674879
0.00296200352204
0.00296200042149
0.00296199744859
0.00296199460462
0.00296199189066
0.00296198930759
0.00296198685608
0.00296198453659
0.00296198234942
0.00296198029471
0.00296197837249
0.0029619765828
0.00296197492573
0.00296197340149
0.00296197201053
0.00296197075352
0.00296196963135
0.00296196864514
0.0029619677961
0.00296196708546
0.00296196651437
0.0029619660838
0.00296196579462
0.00296196564734
0.00296196564265
0.0029619657805
0.0029619660622
0.00296196798888
0.00296197101629
0.00296197523232
0.00296198074673
0.0029619876572
0.00296199605394
0.0029620060164
0.00296201761693
0.00296203091698
0.00296204596254
0.00296206278157
0.00296208138259
0.00296210175288
0.00296212385692
0.00296214763792
0.00296217302311
0.00296219992818
0.00296222825153
0.00296225785421
0.00296228853745
0.00296232003859
0.00296235205497
0.00296238427881
0.00296241641795
0.00296244819073
0.00296247931206
0.00296250948885
0.00296253843904
0.00296256591472
0.00296259172341
0.00296261571392
0.002962637766
0.00296265775423
0.00296267557905
0.00296269114567
0.00296270445081
0.00296271549078
0.00296272440565
0.00296273122983
0.00296273624297
0.00296273938964
0.00296274117178
0.00296274119247
0.00296274049777
0.00296273765628
0.002962735255
0.00296272906426
0.00296272411469
0.00350208498887
0.00337850749734
0.00328620093529
0.00321456894214
0.00315713821253
0.00310986312392
0.00307012349435
0.00303616110439
0.00300675811278
0.0029810472636
0.00295839561256
0.00293833070908
0.00292049219665
0.00290459917415
0.00289042767663
0.00287779489647
0.00286654805851
0.00285655659327
0.00284770666081
0.00283989732174
0.00283303782869
0.00282704566411
0.00282184508382
0.00281736602878
0.00281354333029
0.00281031615987
0.00280762767631
0.00280542481608
0.00280365817045
0.0028022818985
0.00280125363863
0.00280053439727
0.00280008840771
0.00279988296246
0.00279988822748
0.00280007704841
0.00280042475708
0.00280090898473
0.00280150948569
0.00280220797327
0.00280298796836
0.00280383466012
0.00280473477769
0.00280567647187
0.00280664920511
0.00280764364884
0.00280865158694
0.00280966586377
0.00281041779454
0.00281118495653
0.00281196561131
0.00281275806974
0.00281356064478
0.00281437165396
0.00281518942168
0.00281601228126
0.00281683857692
0.00281766666578
0.00281849491988
0.00281932172818
0.00282014549862
0.00282096466039
0.00282177766633
0.00282258299565
0.00282337915717
0.00282416469331
0.00282493818496
0.00282569825729
0.00282644358627
0.00282717290578
0.00282788501497
0.00282857878577
0.00282925317032
0.00282990720816
0.00283054003309
0.00283115087936
0.00283173908717
0.00283230410702
0.00283284550293
0.00283336295426
0.00283385625615
0.00283432531845
0.00283477016335
0.00283519092168
0.00283558782801
0.00283596121478
0.00283631150555
0.00283663920753
0.00283694490363
0.00283722924414
0.00283749293824
0.00283773674539
0.00283796146682
0.00283816793722
0.0028383570166
0.00283852958259
0.00283868652309
0.00283882872944
0.00283895709004
0.00283907248461
0.00283917577888
0.00283926781989
0.00283934943179
0.00283942141216
0.00283948452876
0.00283953951681
0.00283958707671
0.00283962787232
0.00283966252973
0.00283969163526
0.00283971573932
0.00283973535371
0.00283975095013
0.00283976296495
0.00283977179912
0.00283977781958
0.0028397813608
0.00283978272633
0.00283978219048
0.00283978000004
0.00283977637607
0.00283977151572
0.00283976559408
0.00283975876603
0.00283975116804
0.00283974291987
0.00283973412631
0.00283972487866
0.00283971525627
0.0028397053279
0.00283969515299
0.00283968478285
0.00283967426164
0.00283966362733
0.00283965291249
0.00283964214499
0.00283963134872
0.00283962054414
0.00283960974891
0.00283959897839
0.0028395882462
0.00283957756454
0.00283956694456
0.00283955639653
0.00283954592995
0.0028395355536
0.00283952527559
0.00283951510333
0.0028395050436
0.0028394951026
0.00283948528604
0.00283947559927
0.00283946604732
0.00283945663506
0.00283944736724
0.00283943824854
0.00283942928363
0.00283942047715
0.00283941183371
0.0028394033579
0.00283939505423
0.00283938692716
0.00283937898101
0.00283937121999
0.00283936364818
0.00283935626947
0.00283934908761
0.00283934210613
0.00283933532837
0.00283932875743
0.0028393223962
0.00283931624732
0.00283931031318
0.00283930459597
0.00283929909765
0.00283929382004
0.00283928876482
0.00283928393365
0.0028392793282
0.00283927495024
0.00283927080167
0.00283926688454
0.0028392632011
0.00283925975369
0.00283925654477
0.00283925357679
0.00283925085226
0.00283924837354
0.00283924614316
0.00283924416312
0.0028392424364
0.00283924096322
0.00283923854223
0.00283923811422
0.00283923984462
0.00283924389421
0.00283925043775
0.00283925964446
0.00283927167621
0.00283928668256
0.00283930479574
0.00283932612435
0.00283935074932
0.00283937872079
0.00283941005444
0.00283944472783
0.00283948267905
0.00283952380884
0.0028395679824
0.0028396150223
0.00283966468769
0.00283971664979
0.00283977048431
0.00283982569277
0.00283988174024
0.00283993808472
0.00283999418315
0.00284004948567
0.00284010343676
0.00284015549937
0.00284020518751
0.0028402520945
0.00284029588412
0.00284033627281
0.00284037299425
0.00284040582408
0.00284043458096
0.00284045920512
0.00284047969947
0.00284049622735
0.00284050892247
0.00284051813053
0.00284052398304
0.00284052702883
0.00284052719163
0.00284052539925
0.00284052091703
0.00284051554063
0.00284050721798
0.00284049758611
0.00350208504711
0.0033785113756
0.00328621002101
0.00321458294897
0.00315715280323
0.0031098655891
0.00307008796273
0.0030360440611
0.00300649502835
0.0029805507925
0.00295755547943
0.00293701514493
0.0029185506674
0.00290186610249
0.00288672684501
0.002872944203
0.00286036428932
0.00284885989907
0.00283832449674
0.00282866771562
0.0028198119507
0.00281168974839
0.00280424178486
0.00279741529028
0.00279116282162
0.00278544131542
0.00278021136746
0.00277543669399
0.00277108373303
0.00276712134913
0.00276352061
0.00276025461054
0.00275729832626
0.0027546284842
0.00275222344441
0.00275006308782
0.0027481287092
0.00274640291442
0.00274486952243
0.00274351347223
0.00274232073556
0.00274127823582
0.00274037377357
0.00273959595889
0.00273893415061
0.00273837840211
0.00273791941366
0.00273754862646
0.00273731823914
0.00273712623157
0.00273697181201
0.0027368542959
0.00273677294543
0.00273672696542
0.00273671549922
0.00273673762454
0.00273679234966
0.00273687861005
0.00273699526537
0.00273714109706
0.00273731480672
0.0027375150152
0.0027377402628
0.00273798901046
0.00273825964236
0.00273855046998
0.00273885973786
0.00273918563096
0.00273952628368
0.00273987979031
0.00274024421667
0.00274061761291
0.00274099802712
0.00274138351958
0.00274177217739
0.00274216212924
0.0027425515599
0.00274293872423
0.00274332196028
0.00274369970124
0.00274407048605
0.00274443296846
0.0027447859244
0.0027451282576
0.00274545900347
0.00274577733117
0.00274608254401
0.00274637407821
0.00274665150011
0.00274691450208
0.00274716289709
0.00274739661234
0.0027476156818
0.00274782023822
0.00274801050437
0.00274818678404
0.00274834945266
0.00274849894796
0.00274863576056
0.00274876042487
0.00274887351017
0.00274897561211
0.00274906734466
0.00274914933252
0.00274922220414
0.00274928658529
0.00274934309327
0.00274939233183
0.00274943488683
0.00274947133029
0.00274950219575
0.00274952798559
0.00274954919346
0.00274956627473
0.00274957965471
0.00274958972858
0.00274959686162
0.0027496013897
0.00274960362009
0.00274960383241
0.00274960227991
0.0027495991908
0.00274959476975
0.0027495891995
0.00274958264251
0.00274957524255
0.00274956712638
0.00274955840529
0.00274954917664
0.00274953952535
0.00274952952522
0.00274951924025
0.00274950872577
0.00274949802955
0.0027494871927
0.00274947625053
0.00274946523338
0.00274945416727
0.00274944307458
0.00274943197468
0.00274942088446
0.00274940981879
0.00274939879088
0.00274938781266
0.00274937689488
0.00274936604735
0.00274935527901
0.00274934459803
0.00274933401188
0.00274932352746
0.00274931315113
0.00274930288885
0.00274929274627
0.00274928272879
0.00274927284165
0.00274926308994
0.00274925347869
0.00274924401287
0.00274923469736
0.002749225537
0.00274921653658
0.00274920770076
0.00274919903415
0.00274919054123
0.00274918222636
0.00274917409376
0.00274916614753
0.0027491583916
0.00274915082973
0.00274914346554
0.00274913630244
0.00274912934368
0.00274912259231
0.00274911605119
0.00274910972303
0.00274910361037
0.00274909771561
0.00274909204106
0.002749086589
0.00274908136165
0.0027490763613
0.00274907159029
0.00274906705102
0.00274906274598
0.00274905867775
0.00274905484899
0.00274905126237
0.0027490479207
0.00274904482668
0.00274904198325
0.00274903939299
0.00274903705846
0.00274903258646
0.00274903003305
0.00274902957936
0.00274903141894
0.00274903574062
0.00274904273005
0.00274905256413
0.00274906540842
0.00274908141112
0.00274910069756
0.00274912336633
0.00274914948664
0.00274917909512
0.00274921219219
0.00274924873897
0.00274928865541
0.00274933181786
0.00274937805061
0.00274942710911
0.00274947866183
0.00274953228526
0.00274958748067
0.00274964370432
0.0027497003935
0.00274975697662
0.00274981287408
0.0027498675034
0.00274992030067
0.00274997074934
0.00275001840511
0.00275006289293
0.00275010389332
0.00275014111759
0.00275017432577
0.00275020333462
0.00275022807481
0.00275024855474
0.00275026492095
0.00275027732718
0.00275028608917
0.00275029139498
0.00275029372215
0.00275029313821
0.00275029036732
0.00275028507508
0.0027502784386
0.00275026957034
0.00275025870672
0.00350208503164
0.00337850844376
0.00328620346657
0.00321457292606
0.003157139611
0.00310984900025
0.00307006618588
0.00303601256872
0.00300644533442
0.00298046930031
0.00295742251242
0.00293680425463
0.00291822827233
0.00290139147518
0.00288605243326
0.00287201624523
0.00285912366289
0.00284724312767
0.00283626484259
0.00282609629396
0.00281665882242
0.0028078849652
0.00279971637365
0.0027921021677
0.00278499762881
0.00277836316018
0.002772163461
0.00276636687264
0.00276094486212
0.00275587161318
0.0027511237
0.00274667982256
0.00274252058675
0.00273862831588
0.00273498688384
0.0027315815629
0.00272839888145
0.00272542648928
0.00272265302898
0.00272006801367
0.00271766171152
0.00271542503828
0.00271334945895
0.00271142689982
0.00270964967162
0.00270801040437
0.00270650199412
0.00270511776287
0.00270415617841
0.00270323843611
0.0027023648631
0.0027015359712
0.00270075222126
0.00270001401151
0.00269932166554
0.00269867542019
0.00269807541349
0.00269752167288
0.00269701410401
0.00269655248021
0.002696136433
0.00269576544382
0.0026954388373
0.00269515577614
0.00269491525808
0.00269471611504
0.00269455701463
0.00269443646427
0.00269435281775
0.00269430428432
0.00269428894012
0.00269430474179
0.00269434954213
0.00269442110749
0.00269451713661
0.00269463528062
0.00269477316372
0.00269492840424
0.00269509863559
0.00269528152668
0.00269547480152
0.00269567625761
0.00269588378277
0.00269609537029
0.00269630913206
0.00269652330965
0.00269673628319
0.002696946578
0.00269715286904
0.00269735398313
0.00269754889912
0.00269773674615
0.00269791680006
0.00269808847822
0.00269825133293
0.00269840504365
0.00269854940825
0.00269868433349
0.00269880982499
0.00269892597682
0.00269903296103
0.00269913101714
0.00269922044183
0.00269930157897
0.00269937481013
0.00269944054549
0.00269949921555
0.00269955126344
0.00269959713802
0.00269963730421
0.00269967219129
0.0026997022101
0.00269972779813
0.00269974935743
0.00269976727052
0.00269978189887
0.0026997935816
0.00269980263485
0.00269980935139
0.0026998140007
0.00269981682934
0.00269981806161
0.00269981790046
0.00269981652854
0.00269981410941
0.00269981078881
0.00269980669597
0.002699801945
0.00269979663621
0.0026997908574
0.00269978468515
0.00269977818599
0.00269977141756
0.00269976442961
0.00269975726494
0.00269974996032
0.0026997425472
0.00269973505249
0.00269972749918
0.00269971990697
0.00269971229279
0.00269970467124
0.00269969705504
0.00269968945529
0.00269968188179
0.0026996743432
0.00269966684724
0.00269965940077
0.00269965200999
0.00269964468046
0.00269963741729
0.00269963022515
0.00269962310841
0.00269961607119
0.0026996091174
0.00269960225082
0.00269959547513
0.00269958879389
0.00269958221062
0.00269957572875
0.00269956935166
0.00269956308266
0.00269955692499
0.00269955088182
0.00269954495622
0.00269953915121
0.0026995334697
0.00269952791453
0.00269952248841
0.00269951719398
0.00269951203377
0.00269950701019
0.00269950212557
0.00269949738208
0.00269949278184
0.00269948832682
0.00269948401893
0.00269947986
0.00269947585181
0.00269947199608
0.00269946829455
0.00269946474895
0.00269946136106
0.00269945813267
0.00269945506562
0.00269945216178
0.00269944942311
0.00269944685153
0.00269944444912
0.00269944221768
0.0026994401597
0.00269943827567
0.00269943432817
0.00269943169274
0.00269943049817
0.00269943087125
0.00269943294398
0.00269943684532
0.00269944269947
0.00269945062219
0.00269946071724
0.00269947307294
0.00269948776038
0.00269950483256
0.00269952432322
0.0026995462447
0.0026995705848
0.00269959730284
0.00269962632465
0.0026996575344
0.0026996907633
0.0026997257794
0.00269976228657
0.0026997999364
0.00269983834793
0.00269987712492
0.00269991586387
0.00269995415666
0.00269999159505
0.00270002778408
0.00270006235982
0.00270009500458
0.00270012544712
0.00270015345555
0.00270017882571
0.00270020139096
0.00270022103036
0.00270023769753
0.00270025140582
0.00270026225189
0.00270027035465
0.00270027591826
0.00270027910318
0.00270028020165
0.00270027933704
0.00270027690493
0.00270027287685
0.00270026777721
0.00270026151755
0.00270025357476
0.00350208504481
0.00337851093595
0.00328620916187
0.00321458176558
0.00315715119856
0.00310986271202
0.0030700812147
0.00303602780791
0.00300645916333
0.00298047930705
0.00295742518506
0.00293679466482
0.00291819977806
0.00290133546919
0.00288595815886
0.00287187069365
0.0028589115562
0.00284694698223
0.00283586510153
0.0028255715148
0.00281598590689
0.00280703942102
0.00279867260088
0.00279083376331
0.0027834777031
0.00277656465768
0.0027700594779
0.00276393096305
0.00275815132672
0.00275269576576
0.00274754210954
0.00274267053001
0.00273806329675
0.00273370456402
0.00272958017989
0.00272567750988
0.00272198527022
0.00271849336776
0.00271519274515
0.00271207523157
0.00270913339993
0.00270636043218
0.00270374999455
0.0027012961246
0.00269899313149
0.00269683551073
0.00269481787388
0.0026929351269
0.00269161016275
0.00269032824482
0.00268909031979
0.00268789757449
0.00268675116404
0.0026856521963
0.0026846017155
0.00268360068536