/*--------------------------------*- C++ -*----------------------------------*\
  =========                 |
  \\      /  F ield         | OpenFOAM: The Open Source CFD Toolbox
   \\    /   O peration     | Website:  https://openfoam.org
    \\  /    A nd           | Version:  6
     \\/     M anipulation  |
\*---------------------------------------------------------------------------*/
FoamFile
{
    version     2.0;
    format      ascii;
    class       volScalarField;
    location    "0.261799";
    object      omega;
}
// * * * * * * * * * * * * * * * * * * * * * * * * * * * * * * * * * * * * * //

dimensions      [0 0 -1 0 0 0 0];

internalField   nonuniform List<scalar> 
43264
(
1658.16060772
1045.91418062
807.301338812
701.804752839
651.865637076
627.245316845
614.773385183
608.325344213
604.934818093
603.124936053
602.145115165
601.607420304
601.308366782
601.139765396
601.043352127
600.987362145
600.954271058
600.934299783
600.921931138
600.914019652
600.908753933
600.905080687
600.902381571
600.900290106
600.898587006
600.897139814
600.895867811
600.894721417
600.893669985
600.892694482
600.891783044
600.890928243
600.890125388
600.889371465
600.888664459
600.888002954
600.88738585
600.88681225
600.886281302
600.885792254
600.885344262
600.884936646
600.88456844
600.884239138
600.883947453
600.883693395
600.883474782
600.883293708
600.884225468
600.884887686
600.885345511
600.885643679
600.885815294
600.885886181
600.885877498
600.885806688
600.885688235
600.885534127
600.885354089
600.885155779
600.884945015
600.884726056
600.884501932
600.884274774
600.884046102
600.883817061
600.883588577
600.883361467
600.883136481
600.882914325
600.882695661
600.882481098
600.882271192
600.882066438
600.881867275
600.881674091
600.881487228
600.881306991
600.881133651
600.880967452
600.880808617
600.880657348
600.880513829
600.880378232
600.880250712
600.880131415
600.880020476
600.879918018
600.879824158
600.879739004
600.879662657
600.879595212
600.879536759
600.879487379
600.879447152
600.87941615
600.879394442
600.879382092
600.879379159
600.879385699
600.879401761
600.879427394
600.879462641
600.87950754
600.879562128
600.879626437
600.879700494
600.879784326
600.879877954
600.879981466
600.880094796
600.880217876
600.880350813
600.880493608
600.88064626
600.880808768
600.880981127
600.881163329
600.881355362
600.881557212
600.881768862
600.881990289
600.882221471
600.88246238
600.882712984
600.882973252
600.883243146
600.883522629
600.883811657
600.884110188
600.884418173
600.884735563
600.885062306
600.885398347
600.885743629
600.886098091
600.886461672
600.886834309
600.887215934
600.887606479
600.888005874
600.888414046
600.88883092
600.889256421
600.88969047
600.890132987
600.890583891
600.891043098
600.891510525
600.891986085
600.89246969
600.892961253
600.893460683
600.89396789
600.894482781
600.895005265
600.895535247
600.896072634
600.896617329
600.897169239
600.897728266
600.898294316
600.898867291
600.899447095
600.900033632
600.900626805
600.901226519
600.901832678
600.902445186
600.903063951
600.903688878
600.904319874
600.904956849
600.905599713
600.906248378
600.906902756
600.907562764
600.908228318
600.90889934
600.909575751
600.910257479
600.910944448
600.911636601
600.912333856
600.913036186
600.913743476
600.914455796
600.915172872
600.915895112
600.916621627
600.917354058
600.918087455
600.915368558
600.914567486
600.915007158
600.91620238
600.917888461
600.919896253
600.922138017
600.924564503
600.927148571
600.929872783
600.932725311
600.93569758
600.938783229
600.941977327
600.945275766
600.948674955
600.952171381
600.955761668
600.959442054
600.963208936
600.967057899
600.970985237
600.974985717
600.979056129
600.983189981
600.987385601
600.99163403
600.995937342
601.000281508
601.00467694
601.009098763
601.013574917
601.01805732
601.022609915
601.027136065
601.031772428
601.036323303
601.041069594
601.045618641
601.050531517
601.055035019
601.060219998
601.064603697
601.070240677
601.074395256
601.080757346
601.084622116
601.091995129
1607.26739676
935.764962521
640.730111506
486.390214879
396.562356258
340.572517446
304.02420435
279.374364602
262.341142758
250.347254986
241.772871834
235.566111995
231.02592192
227.6746531
225.180515914
223.309266672
221.893560789
220.813064239
219.981083536
219.335166943
218.830235507
218.433481922
218.120632917
217.873313758
217.677285225
217.521323894
217.396529851
217.295883357
217.213924831
217.146485892
217.090441482
217.04347927
217.003893949
216.970414947
216.942071883
216.918096681
216.897857234
216.88081535
216.866501879
216.854502552
216.84445042
216.836021132
216.82893051
216.822931481
216.81781319
216.813396647
216.809536072
216.806109403
216.803660144
216.801360925
216.799183594
216.797106118
216.795111983
216.79318994
216.791333093
216.78953808
216.787804455
216.786134341
216.784532135
216.783004104
216.781557848
216.780201518
216.778942682
216.777786959
216.776736823
216.775790975
216.774944443
216.774189201
216.773514999
216.772910102
216.772361812
216.771856782
216.771381246
216.7709213
216.770463331
216.769994604
216.769503883
216.768981983
216.768422139
216.76782015
216.767174325
216.766485247
216.765755434
216.764988929
216.764190868
216.763367075
216.762523682
216.761666821
216.760802378
216.75993581
216.759072022
216.758215279
216.75736913
216.756536343
216.755718854
216.754917741
216.754133262
216.75336496
216.752611841
216.751872619
216.751145975
216.75043078
216.749726244
216.749031936
216.748347703
216.747673495
216.747009192
216.746354479
216.745708828
216.74507161
216.744442257
216.743820479
216.743206483
216.742601013
216.742005321
216.741421009
216.740849818
216.740293412
216.739753227
216.739230396
216.738725754
216.738239886
216.737773186
216.737325909
216.736898195
216.736490091
216.736101566
216.735732548
216.73538295
216.735052707
216.734741775
216.734450111
216.734177627
216.73392413
216.733689282
216.7334726
216.733273503
216.73309141
216.732925861
216.732776627
216.732643789
216.73252774
216.73242913
216.732348752
216.732287406
216.732245766
216.732224297
216.732223209
216.73224247
216.732281862
216.73234105
216.732419658
216.732517331
216.732633776
216.732768779
216.732922201
216.733093967
216.733284038
216.73349239
216.733718996
216.733963814
216.73422678
216.734507812
216.734806805
216.735123638
216.735458168
216.735810226
216.736179607
216.736566062
216.736969284
216.737388907
216.737824495
216.73827555
216.738741515
216.739221789
216.739715753
216.740222792
216.740742335
216.741273877
216.741817007
216.742371408
216.742936856
216.743513167
216.74410018
216.744697647
216.745305282
216.745922525
216.746548908
216.747183301
216.747825457
216.748472829
216.749128277
216.75128286
216.753373244
216.755472709
216.757679047
216.760035705
216.762567702
216.765281367
216.768181737
216.771271303
216.774547151
216.777999827
216.781614605
216.785372416
216.789251845
216.793233535
216.79730581
216.801466653
216.80571738
216.810049058
216.814432381
216.818821247
216.823170195
216.827449641
216.831648323
216.835760012
216.839773785
216.843668415
216.847424391
216.851023445
216.8544627
216.857733961
216.860845899
216.863782804
216.866563489
216.869157917
216.871614967
216.873876788
216.876051287
216.87800731
216.879969684
216.881629489
216.883476477
216.88475781
216.886650614
216.887116957
216.889440152
216.887320686
216.889429495
1605.90944406
931.091353915
630.944236611
470.142666171
373.049429702
309.484993971
265.436755976
233.628125816
209.94183482
191.885526833
177.866840221
166.823079138
158.019253987
150.931693156
145.177834801
140.472300672
136.598582685
133.390273514
130.71822474
128.481436536
126.600362729
125.011865829
123.665381315
122.520019487
121.542407539
120.705103953
119.985435365
119.364628294
118.827136943
118.360099059
117.952878929
117.596676344
117.284192065
117.009345477
116.767041009
116.552978941
116.36350492
116.195491779
116.046247305
115.913442204
115.795053482
115.689319475
115.594703621
115.509864871
115.433633028
115.364987927
115.303041434
115.247023247
115.208550406
115.172020905
115.137335632
115.104405503
115.073148547
115.043489744
115.015360743
114.988699312
114.963448729
114.939557108
114.916976663
114.895662884
114.875573682
114.856668513
114.838907456
114.822250295
114.806655677
114.792080474
114.778479463
114.7658053
114.754008763
114.743039151
114.732844791
114.723373583
114.714573575
114.70639356
114.698783707
114.691696195
114.685085823
114.678910526
114.673131772
114.667714786
114.662628611
114.657846011
114.653343241
114.649099714
114.645097592
114.64132135
114.637757327
114.634393299
114.631218097
114.628221273
114.625392836
114.622723047
114.620202267
114.617820862
114.615569147
114.613437382
114.61141581
114.609494733
114.607664629
114.605916297
114.604241003
114.602630619
114.601077726
114.599575655
114.598118469
114.596700901
114.595318253
114.593966301
114.592641231
114.591339688
114.59005861
114.588795337
114.587547926
114.586314893
114.585095288
114.583888632
114.582694818
114.581513992
114.580346444
114.579192519
114.578052563
114.576926898
114.575815805
114.574719526
114.573638266
114.572572191
114.571521435
114.570486112
114.569466329
114.568462199
114.567473846
114.566501396
114.565544961
114.56460461
114.563680352
114.562772124
114.56187982
114.561003329
114.560142603
114.559297722
114.558468947
114.557656736
114.556861723
114.556084671
114.55532639
114.554587658
114.553869158
114.553171435
114.552494891
114.551839794
114.551206321
114.550594593
114.550004721
114.549436831
114.548891089
114.548367702
114.54786692
114.547389023
114.54693431
114.546503086
114.546095651
114.545712297
114.545353296
114.545018907
114.544709364
114.544424877
114.544165627
114.543931754
114.543723355
114.54354047
114.543383084
114.543251114
114.543144419
114.543062801
114.54300602
114.542973812
114.542965914
114.542982098
114.543022195
114.543086123
114.543173892
114.543285607
114.543421442
114.543581605
114.543766298
114.543975671
114.544209806
114.544468666
114.544752165
114.545060044
114.545392188
114.545748003
114.546708877
114.54790628
114.549343612
114.551024795
114.552962473
114.555168227
114.557652916
114.560426215
114.563495861
114.566866062
114.570536845
114.574503932
114.578758517
114.583287331
114.588074057
114.593102232
114.598357514
114.603825718
114.609485473
114.61530049
114.621219037
114.627183064
114.633139582
114.639045396
114.644862189
114.650549834
114.656063521
114.661359468
114.666399996
114.671159737
114.675619555
114.679767399
114.683585217
114.687063407
114.69018403
114.692956139
114.695370218
114.69746735
114.699230313
114.70074227
114.70193896
114.702987321
114.70368531
114.704422645
114.704573069
114.705222714
114.704385944
114.704629208
1605.87197262
930.921115181
630.424390433
469.017969323
371.055195174
306.372973434
260.993667178
227.685258918
202.377637036
182.623365953
166.869915562
154.088053604
143.569756124
134.812371722
127.449222619
121.206452244
115.875336422
111.294018435
107.335138939
103.897231248
100.898573514
98.2726889181
95.9649912941
93.9302573546
92.1307127511
90.5345794344
89.1149678732
87.8490230483
86.7172541079
85.7029960673
84.7919676726
83.9719018361
83.2322336518
82.5638363308
81.958798269
81.4102358066
80.9121368212
80.4592306266
80.0468799963
79.6709915466
79.3279412219
79.0145120973
78.7278422317
78.4653806246
78.2248498274
78.0042137738
77.8016501946
77.6155324165
77.4861721667
77.3620334156
77.2429595643
77.1288086789
77.0194449149
76.9147382784
76.8145642457
76.7188032991
76.6273403945
76.5400643744
76.4568673124
76.3776437931
76.3022901489
76.2307036756
76.1627818462
76.0984215577
76.03751847
75.9799664976
75.9256574938
75.8744811313
75.826324959
75.781074605
75.7386140969
75.6988262785
75.6615933047
75.6267972033
75.5943204848
75.56404678
75.5358614689
75.5096522688
75.4853097496
75.4627277548
75.4418037169
75.422438869
75.4045383564
75.3880112624
75.3727705648
75.3587330377
75.3458191206
75.3339527684
75.3230612992
75.3130752512
75.3039282567
75.2955569383
75.2879008277
75.2809023075
75.2745065735
75.2686616157
75.2633182145
75.2584299486
75.2539532093
75.2498472157
75.2460740224
75.2425985113
75.2393883595
75.2364139746
75.2336483962
75.2310671667
75.2286481789
75.2263715142
75.2242192837
75.2221758299
75.2202266247
75.2183585825
75.2165610504
75.2148244153
75.2131403971
75.2115019338
75.2099030522
75.208338732
75.2068047716
75.2052976634
75.2038144838
75.2023528017
75.2009106015
75.1994862207
75.1980782958
75.1966857178
75.1953075938
75.1939432169
75.1925920413
75.1912536627
75.1899278004
75.1886142792
75.1873130086
75.1860239619
75.1847471554
75.1834826345
75.182230469
75.1809907613
75.1797636638
75.1785494031
75.1773483001
75.1761607816
75.1749873763
75.1738286953
75.172685401
75.1715581705
75.1704476623
75.169354491
75.1682792147
75.1672223348
75.166184305
75.1651655465
75.1641664643
75.1631874622
75.1622289532
75.1612913653
75.1603751434
75.159480746
75.1586086414
75.157759301
75.1569331943
75.1561307827
75.155352516
75.1545988281
75.1538701338
75.1531668255
75.152489269
75.1518377995
75.1512127174
75.1506142835
75.1500427165
75.1494981902
75.1489808342
75.1484907366
75.1480279501
75.1475925031
75.1471844132
75.1468037041
75.1464504231
75.1461246556
75.1458265348
75.1455562432
75.1453140052
75.1451000742
75.1449147106
75.1447581687
75.1446306721
75.1445324229
75.1444635672
75.1444242594
75.1444145736
75.1444346528
75.1447297043
75.1452533253
75.146024685
75.1470670643
75.148401578
75.1500477644
75.1520230034
75.1543432225
75.157022136
75.1600702849
75.1634944033
75.1672970469
75.1714761203
75.1760245426
75.1809306029
75.1861792207
75.1917531466
75.197632119
75.2037889314
75.2101846332
75.2167671924
75.2234758361
75.2302479804
75.2370236125
75.243744522
75.250351549
75.2567835455
75.2629811522
75.2688915992
75.2744732799
75.2796931898
75.2845248094
75.2889406842
75.2929183325
75.2964360911
75.2994905452
75.3020786651
75.3042265597
75.3059401759
75.3072746578
75.3082194584
75.3088747221
75.3091632438
75.3092932478
75.3089838958
75.3087469724
75.3077529374
75.3069882235
1605.87061767
930.891283008
630.363612871
468.904604328
370.853656042
306.03822748
260.474756301
226.928784966
201.330806654
181.236362591
165.097552505
151.890802056
140.914294189
131.671794898
123.803012746
117.040251905
111.180547272
106.067244081
101.577514633
97.6137037363
94.0971995128
90.964006369
88.1614911221
85.6459563644
83.3808096401
81.335169069
79.4827920533
77.8012443128
76.2712479624
74.8761632627
73.6015708026
72.4349300938
71.3652973887
70.3830904018
69.479890955
68.6482788008
67.8816913609
67.1743051449
66.5209353561
65.9169507765
65.3582014903
64.84095741
64.3618558781
63.9178569228
63.5062049222
63.1243956976
62.7701481359
62.4413909637
62.2112623288
61.9888557319
61.7740416723
61.5667086454
61.3667480998
61.1740539173
60.9885218435
60.8100488572
60.6385325088
60.4738702352
60.3159586515
60.1646928255
60.0199655514
59.881666634
59.7496821975
59.6238940356
59.5041790363
59.3904087179
59.2824489031
59.1801595437
59.0833946917
58.992002608
58.9058259971
58.8247023565
58.7484644321
58.6769407716
58.6099563629
58.5473333417
58.4888917481
58.4344503053
58.3838271987
58.3368408348
58.2933105654
58.253057367
58.215904468
58.1816779229
58.1502071317
58.1213253067
58.0948698891
58.0706829197
58.048611367
58.0285074157
58.010228719
57.993638615
57.9786063091
57.9650070222
57.9527221047
57.9416391171
57.9316518772
57.9226604741
57.914571249
57.9072967433
57.9007556127
57.8948725076
57.8895779176
57.8848079814
57.880504263
57.8766134994
57.8730873245
57.8698819806
57.8669580237
57.864280805
57.8618179994
57.8595403524
57.8574237343
57.8554460789
57.8535880099
57.8518326037
57.8501651528
57.848572934
57.8470449871
57.8455719075
57.844145656
57.8427593868
57.8414072951
57.8400844815
57.838786831
57.837510907
57.8362538574
57.8350133321
57.8337874123
57.8325745493
57.8313735116
57.8301833387
57.8290032988
57.8278328506
57.8266716095
57.8255193177
57.8243758218
57.8232410577
57.8221150432
57.8209978753
57.8198897313
57.8187908673
57.8177016139
57.8166223655
57.8155535653
57.8144956876
57.8134492205
57.812414651
57.8113924555
57.8103830951
57.8093870156
57.8084046509
57.8074364278
57.8064827712
57.8055441083
57.8046208712
57.8037134983
57.8028224333
57.801948124
57.8010910191
57.8002515657
57.7994302058
57.7986273735
57.7978434926
57.7970789742
57.7963342145
57.7956095927
57.7949054692
57.7942221834
57.7935600519
57.7929193668
57.7923003949
57.7917033767
57.7911285279
57.7905760412
57.7900460902
57.7895388351
57.7890544295
57.7885930287
57.7881547964
57.7877399108
57.7873485675
57.78698098
57.7866373763
57.7863179953
57.7860230796
57.7857528752
57.7855076204
57.785287561
57.7850929128
57.78492395
57.7847807485
57.7845509496
57.7845241671
57.7847170585
57.7851461184
57.7858292298
57.7867838062
57.7880265647
57.7895730837
57.7914372678
57.7936306473
57.7961618526
57.7990361561
57.8022549628
57.8058153709
57.809710113
57.8139280306
57.8184546299
57.8232716715
57.8283551195
57.8336724233
57.8391813976
57.8448321576
57.850570921
57.856343053
57.8620936781
57.8677670128
57.8733064088
57.8786568921
57.8837686753
57.888600279
57.8931176599
57.8972922867
57.9010971608
57.9045093064
57.9075096723
57.9100916568
57.9122547139
57.9140152167
57.9153858103
57.9164019802
57.9170755825
57.9174639112
57.917556031
57.9174505915
57.9170650393
57.9165932359
57.9158083806
57.9148920596
1605.87076793
930.908951198
630.387056583
468.926569448
370.867703862
306.036789584
260.448722438
226.867458409
201.222114631
181.06720856
164.854222552
151.559362337
140.480952663
131.123220533
123.126611135
116.224393013
110.214737442
104.942235623
100.285353049
96.147721443
92.4519714503
89.1352844007
86.1461308882
83.4418443935
80.9867928249
78.7509849761
76.7089974674
74.8391403393
73.1228018103
71.5439285027
70.088608831
68.7447356104
67.5017301004
66.3503142379
65.282321128
64.2905362753
63.3685638003
62.510713174
61.711902961
60.9675787795
60.2736432369
59.6263960144
59.0224826038
58.4588504418
57.9327113942
57.4415096761
56.9828944788
56.5547111765
56.2536733824
55.9614831536
55.6780685145
55.4033782686
55.1373625917
54.8799721793
54.6311573513
54.3908671306
54.1590483042
53.9356444793
53.7205951379
53.5138347017
53.3152916203
53.1248874964
52.9425362616
52.7681434204
52.6016053829
52.4428089088
52.2916306823
52.1479370271
52.0115837675
51.882416235
51.7602694193
51.6449682614
51.5363280841
51.4341551547
51.3382473717
51.2483950631
51.1643818795
51.0859857637
51.012979977
50.9451341627
50.8822154303
50.8239894422
50.770221491
50.7206775521
50.6751253018
50.6333350905
50.5950808615
50.5601410109
50.5282991793
50.4993449732
50.4730746116
50.4492914933
50.4278066858
50.4084393323
50.391016978
50.3753758171
50.3613608623
50.3488260394
50.3376342115
50.3276571355
50.318775356
50.3108780413
50.3038627653
50.2976352402
50.2921090073
50.2872050911
50.2828516246
50.2789834553
50.2755417394
50.2724746847
50.2697338716
50.267275407
50.2650629329
50.2630630939
50.2612464629
50.2595871932
50.2580626777
50.2566532239
50.2553417453
50.2541134743
50.2529556961
50.2518575057
50.2508095883
50.2498040202
50.2488340906
50.2478941415
50.2469794263
50.2460859832
50.2452105248
50.2443503421
50.2435032193
50.2426673612
50.2418413282
50.2410239797
50.2402144248
50.2394119797
50.2386161316
50.2378265111
50.2370428692
50.2362650617
50.2354930362
50.2347268218
50.2339665183
50.2332122861
50.2324643335
50.2317229052
50.2309882707
50.2302607148
50.2295405301
50.2288280127
50.2281234591
50.2274271665
50.2267394325
50.2260605565
50.2253908405
50.2247305898
50.2240801128
50.2234397209
50.2228097271
50.2221904451
50.2215821875
50.2209852639
50.2203999799
50.2198266353
50.2192655229
50.2187169274
50.2181811247
50.2176583805
50.2171489498
50.2166530759
50.2161709897
50.2157029092
50.2152490391
50.2148095709
50.2143846831
50.213974543
50.213579308
50.2131991285
50.2128341504
50.2124845188
50.2121503806
50.2118318868
50.2115291937
50.2112424642
50.2109718665
50.2107175752
50.210479768
50.2102586295
50.2100543433
50.2098671003
50.2096970885
50.2095444548
50.209256886
50.2090998414
50.2090856994
50.2092276321
50.2095385805
50.2100312931
50.2107180063
50.2116102854
50.2127186143
50.2140519586
50.2156173932
50.2174197634
50.2194613199
50.221741395
50.2242562635
50.226999261
50.229960952
50.2331288582
50.236486425
50.2400116662
50.2436765642
50.2474479688
50.2512895172
50.255163355
50.2590308055
50.2628524244
50.2665883767
50.2702000054
50.2736519417
50.2769139442
50.2799606912
50.2827707577
50.2853247048
50.2876062803
50.2896028595
50.2913096229
50.2927268685
50.2938645902
50.2947328591
50.295353403
50.2957382644
50.2959207114
50.295903709
50.2957386303
50.2953989232
50.2949697572
50.294383088
50.2936589172
1605.87062502
930.893750513
630.365394509
468.902533319
370.842864397
306.011446648
260.422223313
226.838390406
201.188410555
181.026220011
164.802788427
151.493888039
140.397500719
131.017608216
122.994509152
116.061419708
110.016543717
104.704577167
100.00414829
95.8190957521
92.0722897887
88.7011754401
85.6545053713
82.8899095477
80.3720634814
78.0712911638
75.9624879072
74.0242814132
72.2383720369
70.58900905
69.0625709666
67.6472261283
66.3326556974
65.1098255974
63.9707971978
62.908568971
61.916943163
60.9904128808
60.1240660306
59.3135033052
58.5547680128
57.8442859708
57.1788140269
56.5553960164
55.9713251541
55.4241120045
54.9114572953
54.4312452774
54.0928238429
53.7635694753
53.4434532845
53.1324693906
52.8306131634
52.537880119
52.2542647807
51.9797595113
51.7143533297
51.4580307249
51.2107704788
50.9725445099
50.7433167542
50.5230420975
50.3116653755
50.1091204568
49.9153294282
49.7302019003
49.5536344486
49.3855102045
49.2256986005
49.0740552784
48.9304221598
48.7946276812
48.6664871918
48.5458035088
48.4323676241
48.3259595515
48.2263493001
48.133297959
48.046558872
47.9658788872
47.8909996582
47.8216589807
47.7575921435
47.6985332768
47.6442166795
47.5943781109
47.5487560292
47.5070927666
47.4691356271
47.4346378976
47.4033597656
47.3750691345
47.3495423347
47.3265647265
47.305931194
47.2874465313
47.270925724
47.2561941284
47.2430875553
47.2314522628
47.2211448655
47.2120321679
47.2039909281
47.1969075608
47.1906777884
47.185206247
47.180406059
47.176198378
47.1725119186
47.1692838755
47.1664554695
47.1639733621
47.1617933033
47.1598746408
47.1581814444
47.1566820899
47.1553488517
47.1541575168
47.1530870205
47.152119106
47.1512380095
47.1504301713
47.1496839725
47.1489894957
47.1483383103
47.1477232781
47.1471383809
47.1465785669
47.1460396151
47.1455180162
47.1450108681
47.1445157851
47.1440308186
47.143554388
47.1430852211
47.1426223028
47.1421648317
47.141712184
47.1412638839
47.1408195793
47.1403790226
47.1399420537
47.1395085863
47.139078595
47.1386521032
47.1382291731
47.1378098963
47.1373943856
47.1369827696
47.1365751877
47.1361717873
47.1357727221
47.1353781506
47.1349882356
47.1346031438
47.1342230451
47.1338481125
47.1334785211
47.1331144476
47.1327560694
47.1324035638
47.1320571069
47.1317168732
47.1313830346
47.1310557597
47.1307352138
47.1304215576
47.1301149476
47.1298155351
47.1295234662
47.1292388811
47.1289619142
47.1286926935
47.1284313407
47.1281779715
47.1279326955
47.1276956171
47.1274668363
47.1272464499
47.1270345527
47.1268312386
47.1266366023
47.1264507394
47.1262737479
47.126105728
47.1259467822
47.1257970163
47.125656537
47.1255254566
47.1254038801
47.1252919326
47.1251896705
47.1249769261
47.1248372387
47.1247776714
47.1248053131
47.1249275121
47.1251515163
47.1254843745
47.1259327722
47.1265028253
47.1271998378
47.1280280892
47.1289906307
47.1300890694
47.131323374
47.1326917649
47.1341907211
47.135815013
47.1375575463
47.1394088788
47.1413566036
47.1433850753
47.145475814
47.1476083966
47.1497613081
47.1519123759
47.1540389493
47.1561182301
47.1581281144
47.1600482803
47.1618611106
47.1635517081
47.1651074525
47.1665172492
47.1677720354
47.1688651809
47.1697941823
47.1705597581
47.1711673172
47.171623334
47.1719391935
47.1721235107
47.1721926754
47.1721529629
47.1720268497
47.1718116005
47.1715375491
47.1711979861
47.1707633882
1605.87072976
930.906516536
630.383633863
468.922417372
370.862552207
306.029946676
260.438976774
226.853014911
201.200563975
181.035525094
164.808789209
151.496021994
140.395082278
131.009822718
122.980416694
116.0399673
109.986583292
104.664886644
99.9534532766
95.7560902457
91.9956551333
88.6095974687
85.5466900137
82.7645972062
80.2280423032
77.9074091378
75.7776635782
73.8175129972
72.0087448055
70.3357009858
68.7848568131
67.3444800381
66.0043527068
64.7555421314
63.5902107634
62.5014571358
61.4831818678
60.5299741012
59.637014784
58.7999940005
58.0150401477
57.2786592039
56.5876826679
55.9392230031
55.3306356025
54.7594864349
54.2235246451
53.7206765952
53.3658885446
53.0203086828
52.6839304109
52.3567714982
52.0388512743
51.7301894013
51.430804602
51.1407133561
50.8599285759
50.5884582779
50.3263042612
50.0734608105
49.8299134393
49.595637691
49.3705980135
49.1547467266
48.9480230989
48.75035255
48.5616459963
48.3817993499
48.2106931821
48.0481925595
47.8941470546
47.748390935
47.6107435298
47.4810097688
47.3589808886
47.2444352946
47.1371395671
47.0368495951
46.9433118205
46.856264573
46.775439476
46.7005629031
46.6313574626
46.5675434909
46.5088405346
46.4549688003
46.4056505564
46.3606114691
46.3195818593
46.2822978662
46.2485025092
46.2179466382
46.1903897683
46.1656007922
46.1433585722
46.1234524099
46.1056823962
46.0898596476
46.0758064312
46.0633561885
46.0523534625
46.0426537398
46.0341232137
46.0266384799
46.020086173
46.0143625547
46.0093730623
46.0050318272
46.0012611734
45.9979926346
45.9951620963
45.9927113357
45.9905920347
45.9887597679
45.9871752396
45.9858038318
45.9846151645
45.9835826778
45.9826832392
45.9818967758
45.9812059344
45.9805957684
45.9800534525
45.9795680226
45.9791301418
45.978731889
45.9783665706
45.9780285524
45.9777131114
45.9774163051
45.9771348564
45.9768660545
45.976607667
45.9763578653
45.9761151593
45.9758783413
45.9756464394
45.9754186769
45.975194439
45.9749732449
45.974754725
45.9745386014
45.9743246718
45.9741127956
45.9739028819
45.9736948797
45.9734887692
45.9732845547
45.9730822592
45.9728819201
45.9726835855
45.9724873124
45.9722931643
45.9721012105
45.9719115244
45.9717241832
45.9715392668
45.9713568576
45.9711770392
45.9709998964
45.9708255146
45.970653979
45.9704853743
45.9703197846
45.9701572927
45.9699979801
45.9698419266
45.9696892101
45.9695399067
45.96939409
45.9692518313
45.9691131994
45.9689782603
45.9688470775
45.9687197114
45.96859622
45.968476659
45.9683610816
45.9682495397
45.9681420837
45.9680387636
45.967939629
45.9678447297
45.9677541162
45.9676678393
45.967585951
45.9675085038
45.9674355515
45.9673671473
45.9673033467
45.9672442021
45.967189757
45.9670752668
45.9669954791
45.9669538867
45.9669541572
45.966999943
45.9670948724
45.9672424642
45.9674460667
45.9677087512
45.9680331987
45.968421594
45.9688755241
45.9693958721
45.9699827198
45.9706352857
45.9713519093
45.9721300462
45.9729661891
45.9738556607
45.9747923604
45.9757686553
45.9767755522
45.9778030779
45.9788406568
45.9798773385
45.9809019322
45.9819032091
45.9828703029
45.9837932089
45.984663195
45.9854728512
45.9862159267
45.9868870688
45.987482022
45.987997842
45.9884335194
45.9887896795
45.9890690113
45.989274951
45.9894129025
45.9894875258
45.9895062784
45.9894732062
45.9893978303
45.9892812029
45.9891346585
45.9889599762
45.9887382294
1605.87065043
930.895731318
630.368120825
468.905539929
370.845893653
306.014261111
260.424564749
226.839938724
201.188748788
181.024808246
164.798945881
151.486781674
140.386140287
131.000848033
122.971056586
116.02984958
109.975317164
104.652063118
99.9386458535
95.7388562615
91.9755379035
88.5861292003
85.5193953774
82.7329974189
80.1916595543
77.8657711799
75.7303083106
73.7639928871
71.9486310289
70.2685872087
68.7103625742
67.2622537208
65.9140741049
64.6569246189
63.4830030716
62.3854447374
61.358187959
60.3958601726
59.4936807686
58.6473779972
57.8531177221
57.1074422808
56.4072180399
55.7495904884
55.131945896
54.5518787011
54.0071639102
53.4957512948
53.1347383994
52.7829176331
52.4402917557
52.1068885585
51.7827376576
51.4678692098
51.1623125819
50.8660949853
50.5792400871
50.3017666141
50.0336869627
49.7750058335
49.5257189068
49.2858115772
49.0552577648
48.8340188223
48.6220425536
48.4192623625
48.2255965457
48.0409477438
47.8652025606
47.6982313597
47.5398882422
47.3900112096
47.2484225102
47.1149291663
46.9893236743
46.8713848696
46.7608789424
46.6575605893
46.5611742836
46.4714556452
46.3881328882
46.3109283265
46.2395599151
46.1737428036
46.1131908837
46.0576183075
46.0067409587
45.9602778591
45.9179524944
45.8794940457
45.8446385155
45.8131297387
45.784720273
45.7591721626
45.7362575754
45.715759312
45.6974711899
45.6811983066
45.6667571876
45.6539758249
45.6426936169
45.6327612155
45.6240402928
45.6164032347
45.6097327741
45.6039215724
45.5988717588
45.5944944391
45.5907091816
45.5874450795
45.5846357161
45.582220743
45.5801500903
45.5783776998
45.576862818
45.5755695291
45.5744663015
45.5735255566
45.5727232634
45.572038559
45.5714533978
45.5709522284
45.5705216981
45.5701503842
45.5698285516
45.5695479341
45.5693015392
45.5690834738
45.5688887903
45.5687133511
45.5685537092
45.5684070047
45.5682708745
45.568143374
45.5680229099
45.5679081828
45.5677981377
45.5676919224
45.5675888528
45.5674883829
45.5673900809
45.5672936082
45.5671987026
45.567105164
45.5670128424
45.5669216282
45.5668314435
45.566742236
45.566653973
45.5665666374
45.5664802245
45.5663947389
45.5663101927
45.5662266039
45.5661439955
45.5660623937
45.5659818277
45.5659023292
45.5658239311
45.5657466678
45.5656705745
45.5655956867
45.5655220402
45.5654496707
45.5653786139
45.565308905
45.5652405786
45.5651736689
45.5651082092
45.5650442321
45.5649817694
45.5649208517
45.5648615088
45.5648037692
45.5647476605
45.564693209
45.5646404403
45.5645893789
45.5645400484
45.5644924722
45.5644466731
45.5644026738
45.5643604968
45.5643201647
45.5642817005
45.5642451269
45.5642104674
45.5641777447
45.5641469832