/*--------------------------------*- C++ -*----------------------------------*\
  =========                 |
  \\      /  F ield         | OpenFOAM: The Open Source CFD Toolbox
   \\    /   O peration     | Website:  https://openfoam.org
    \\  /    A nd           | Version:  6
     \\/     M anipulation  |
\*---------------------------------------------------------------------------*/
FoamFile
{
    version     2.0;
    format      ascii;
    class       volScalarField;
    location    "0.261799";
    object      omega_0;
}
// * * * * * * * * * * * * * * * * * * * * * * * * * * * * * * * * * * * * * //

dimensions      [0 0 -1 0 0 0 0];

internalField   nonuniform List<scalar> 
43264
(
1658.16124476
1045.91555838
807.303063265
701.806643264
651.867630365
627.247378355
614.775489831
608.327475995
604.936968277
603.127100005
602.147290416
601.609605492
601.310561146
601.141968468
601.045563575
600.989581691
600.956498468
600.936534874
600.924173783
600.916269767
600.911011454
600.907345538
600.904653642
600.902569241
600.900872997
600.899432414
600.89816674
600.897026375
600.895980662
600.895010563
600.894104214
600.893254189
600.892455798
600.891706024
600.891002854
600.890344869
600.88973097
600.889160254
600.888631873
600.888145073
600.88769901
600.887293004
600.886926096
600.886597775
600.886306764
600.886053067
600.885834523
600.88565318
600.886566238
600.887218854
600.887671241
600.887965787
600.888134861
600.888204023
600.888194306
600.888123101
600.888004864
600.887851542
600.887672793
600.887476171
600.887267371
600.887050529
600.886828569
600.88660354
600.886376911
600.886149796
600.885923116
600.88569769
600.885474278
600.885253598
600.885036319
600.88482306
600.884614378
600.884410771
600.88421268
600.884020491
600.883834547
600.883655153
600.883482579
600.88331707
600.883158848
600.883008115
600.882865056
600.882729842
600.882602629
600.882483561
600.882372773
600.882270389
600.882176525
600.882091288
600.882014781
600.881947096
600.881888323
600.881838545
600.88179784
600.88176628
600.881743933
600.881730863
600.881727129
600.881732787
600.881747886
600.881772474
600.881806593
600.881850283
600.881903579
600.881966513
600.882039113
600.882121404
600.882213408
600.88231521
600.88242675
600.882547959
600.882678939
600.882819694
600.882970223
600.883130523
600.883300592
600.883480419
600.883669995
600.883869305
600.88407833
600.884297051
600.884525443
600.884763478
600.885011127
600.885268357
600.88553513
600.88581141
600.886097153
600.886392317
600.886696854
600.887010715
600.887333848
600.887666198
600.888007709
600.888358321
600.888717972
600.8890866
600.889464137
600.889850516
600.890245667
600.890649517
600.891061994
600.89148302
600.891912518
600.892350409
600.892796611
600.893251043
600.893713619
600.894184255
600.894662863
600.895149357
600.895643645
600.896145639
600.896655246
600.897172374
600.897696931
600.898228823
600.898767955
600.899314232
600.899867558
600.900427839
600.900994978
600.90156888
600.902149447
600.902736586
600.903330199
600.903930191
600.904536469
600.905148938
600.905767504
600.906392076
600.907022563
600.907658875
600.908300923
600.908948622
600.909601887
600.910260635
600.910924787
600.911594265
600.912268996
600.912948904
600.913633932
600.914323997
600.915019074
600.915719046
600.916423982
600.91713361
600.917848334
600.918567271
600.919292044
600.920017788
600.917345302
600.916551933
600.916985329
600.91816632
600.919832489
600.921816773
600.924032957
600.926432642
600.92898899
600.931684596
600.934507586
600.937449334
600.940503446
600.94366497
600.946929791
600.950294311
600.953755021
600.957308549
600.960951141
600.964679207
600.968488348
600.972374876
600.976333588
600.98036129
600.98445153
600.988602648
600.992805737
600.997062866
601.001360087
601.005707772
601.010081171
601.014508114
601.018940732
601.023442722
601.027917823
601.032502205
601.037000839
601.041693714
601.046189362
601.051047211
601.055496148
601.060624153
601.064952055
601.070529544
601.074626961
601.08092613
601.084732066
601.092037238
1607.2674189
935.764904127
640.730231696
486.390519464
396.562758007
340.572962908
304.024651655
279.374758808
262.341441391
250.347460794
241.773040934
235.566331181
231.026267732
227.675154412
225.181139422
223.30993127
221.894171665
220.813549338
219.9814168
219.335371257
218.830368015
218.433610645
218.120814697
217.873580512
217.677640738
217.521749324
217.396993913
217.296353003
217.214373436
217.146897631
217.090812034
217.043813878
217.004204144
216.970715066
216.942376169
216.918417277
216.898203115
216.881192016
216.866911562
216.854944714
216.844922368
216.83651865
216.829448435
216.823464221
216.818355161
216.813942645
216.810081547
216.806650701
216.804198036
216.801893308
216.799709335
216.79762469
216.795623381
216.793694653
216.791832017
216.790032429
216.788295727
216.786624302
216.785022787
216.78349763
216.782056515
216.78070754
216.77945802
216.778313113
216.777274679
216.77634077
216.775505828
216.774761365
216.774096788
216.773500118
216.772958467
216.77245834
216.771985851
216.771527034
216.771068303
216.770597044
216.770102251
216.769575045
216.769009013
216.768400323
216.76774763
216.767051829
216.766315693
216.765543462
216.764740408
216.763912431
216.763065691
216.762206307
216.761340118
216.760472511
216.759608308
216.758751672
216.75790604
216.757074059
216.756257533
216.755457409
216.754673822
216.753906212
216.753153519
216.752414429
216.751687632
216.750972043
216.750266925
216.749571897
216.748886831
216.748211679
216.747546295
216.746890327
216.746243217
216.745604331
216.744973132
216.744349392
216.743733403
216.743125995
216.742528491
216.741942533
216.741369866
216.740812133
216.740270727
216.739746738
216.739240959
216.738753945
216.738286069
216.73783757
216.737408576
216.736999122
216.736609171
216.736238647
216.73588747
216.735555577
216.735242932
216.734949491
216.734675155
216.734419712
216.734182802
216.733963924
216.733762492
216.733577934
216.73340982
216.733257971
216.733122517
216.733003903
216.732902814
216.732820057
216.732756425
216.73271257
216.732688921
216.732685651
216.732702698
216.732739824
216.732796683
216.732872903
216.732968139
216.733082112
216.733214623
216.733365548
216.733534823
216.733722415
216.733928305
216.734152467
216.734394859
216.734655419
216.734934063
216.735230689
216.735545175
216.735877379
216.73622713
216.736594222
216.736978399
216.737379352
216.737796705
216.738230019
216.738678786
216.739142447
216.739620401
216.74011203
216.740616729
216.741133939
216.741663175
216.742204047
216.742756259
216.743319607
216.743893918
216.744479036
216.745074711
216.745680645
216.746296265
216.746921088
216.747553973
216.748194665
216.748840625
216.749494664
216.751641585
216.753726668
216.755822023
216.758025116
216.760378647
216.762906883
216.765616182
216.768511933
216.771596754
216.774867631
216.778315019
216.78192415
216.785675946
216.789549071
216.793524423
216.797590723
216.801746281
216.80599236
216.810319489
216.81469765
216.819080394
216.823422522
216.827695046
216.831887095
216.835992385
216.839999661
216.843887455
216.847636237
216.85122791
216.854659717
216.857923522
216.861027887
216.863957074
216.866729758
216.869316033
216.871764643
216.874018023
216.876183765
216.878131202
216.880084491
216.881735634
216.883573046
216.884845748
216.886728112
216.887186094
216.889497162
216.88736952
216.889461069
1605.90945833
931.091500337
630.944357174
470.142731215
373.049465673
309.485023518
265.436785206
233.628148285
209.941841147
191.885515255
177.866823014
166.823080396
158.019298864
150.931794211
145.177983332
140.47246811
136.598731386
133.390371432
130.718257089
128.481409813
126.600300494
125.01179914
123.665338189
122.520017201
121.542449636
120.705181816
119.985532789
119.364727023
118.827221452
118.360159603
117.952912618
117.596686592
117.284187015
117.009336021
116.767038901
116.552995283
116.363549132
116.195571043
116.046366393
115.913603582
115.7952576
115.689565166
115.594988545
115.510185971
115.433986961
115.365371447
115.303451713
115.247458106
115.20900223
115.172489606
115.137821504
115.104909295
115.073671477
115.044033501
115.015927443
114.989291435
114.964069042
114.940208585
114.917662382
114.896385915
114.876336971
114.857474755
114.839758972
114.823148905
114.807602593
114.793076246
114.779523955
114.766897728
114.755147749
114.744222806
114.734070803
114.724639308
114.715876135
114.707729945
114.700150884
114.693091212
114.686505907
114.680353166
114.674594776
114.669196311
114.664127174
114.659360473
114.65487277
114.650643739
114.64665575
114.642893425
114.639343192
114.635992865
114.632831264
114.629847894
114.62703269
114.624375818
114.621867535
114.619498094
114.617257704
114.615136528
114.613124724
114.611212535
114.609390403
114.607649121
114.605979979
114.604374897
114.602826518
114.601328242
114.599874201
114.598459185
114.597078541
114.595728083
114.594404032
114.593103068
114.591822178
114.590558761
114.589310942
114.588077308
114.586856976
114.585649524
114.584454883
114.583273223
114.58210484
114.58095008
114.579809284
114.578682763
114.577570793
114.576473608
114.575391407
114.574324351
114.573272569
114.572236176
114.571215277
114.57020999
114.569220439
114.568246753
114.56728904
114.566347363
114.565421719
114.564512041
114.563618218
114.562740146
114.561877795
114.561031273
114.560200871
114.559387079
114.558590561
114.557812093
114.557052488
114.556312515
114.555592841
114.554893991
114.554216347
114.553560162
114.552925604
114.552312793
114.551721842
114.551152886
114.550606098
114.550081698
114.549579941
114.549101115
114.548645523
114.548213471
114.547805263
114.547421188
114.547061523
114.546726521
114.546416419
114.546131424
114.545871713
114.545637423
114.545428645
114.545245413
114.545087704
114.544955427
114.544848435
114.544766523
114.544709448
114.544676946
114.54466876
114.544684671
114.544724523
114.544788249
114.544875879
114.544987532
114.545123392
114.545283671
114.54546857
114.54567823
114.545912721
114.546171992
114.546455948
114.546764319
114.547096989
114.547453358
114.54841736
114.549617667
114.551057893
114.552742207
114.554683279
114.556892623
114.559381087
114.562158375
114.56523219
114.568606654
114.572281714
114.576253029
114.580511732
114.585044516
114.589835097
114.594867146
114.600126468
114.605598853
114.611262613
114.617080966
114.623001834
114.628967191
114.634924356
114.640830412
114.646647073
114.652334057
114.657846421
114.663140423
114.668178584
114.672935748
114.677392888
114.681537899
114.685352644
114.688827445
114.691944454
114.694712808
114.697123196
114.699216705
114.700976304
114.702484981
114.70367878
114.704724201
114.705419868
114.706154442
114.706303328
114.706949883
114.706112969
114.706351506
1605.87198304
930.921046461
630.424370325
469.018006634
371.055259444
306.373044338
260.993735297
227.68531853
202.377683852
182.623398594
166.86993719
154.088071615
143.569779414
134.812406659
127.449269769
121.206505662
115.875385936
111.294053816
107.335153991
103.897226062
100.898554173
98.2726650778
95.9649728643
93.9302515991
92.1307227158
90.5346039608
89.1150028848
87.8490634907
86.717295896
85.7030375672
84.7920104992
83.9719509735
83.2322970531
82.5639242098
81.9589222843
81.4104082864
80.9123701178
80.4595366351
80.047269839
79.6714754014
79.3285282682
79.0152105503
78.7286594372
78.4663231912
78.2259237728
78.0054246669
77.8030032771
77.6170326864
77.4877839932
77.363761973
77.2448102846
77.1307872417
77.0215572311
76.916990459
76.8169625503
76.7213540693
76.6300499793
76.5429390437
76.4599131596
76.3808666269
76.3056953796
76.2342961982
76.166565925
76.1024007193
76.0416954139
75.9843430348
75.9302345153
75.879258605
75.8313019504
75.7862493177
75.7439839284
75.7043878894
75.667342699
75.6327298182
75.6004312875
75.5703303666
75.5423121609
75.5162642019
75.4920769503
75.4696442025
75.448863392
75.4296357862
75.4118665855
75.3954649393
75.3803438935
75.3664202888
75.3536146257
75.3418509152
75.3310565281
75.3211620547
75.3121011828
75.3038105977
75.2962299049
75.2893015754
75.2829709111
75.2771860277
75.2718978532
75.2670601365
75.2626294617
75.2585652617
75.2548298241
75.2513882781
75.2482085576
75.2452613298
75.2425198913
75.2399600327
75.2375598837
75.2352997496
75.2331619527
75.2311310383
75.2291926682
75.2273339381
75.2255443743
75.2238145315
75.2221362858
75.2205027178
75.2189079809
75.2173471648
75.2158161615
75.2143115421
75.2128304497
75.2113705093
75.2099297534
75.2085065603
75.2070996019
75.2057077995
75.2043302866
75.2029663793
75.2016155525
75.2002774204
75.1989517187
75.197638286
75.1963370431
75.1950479712
75.1937710922
75.1925064558
75.1912541371
75.1900142453
75.188786944
75.187572474
75.1863711734
75.1851834866
75.1840099581
75.1828512103
75.1817079118
75.1805807402
75.1794703498
75.1783773483
75.1773022863
75.1762456585
75.175207914
75.1741894722
75.1731907386
75.1722121197
75.1712540322
75.1703169087
75.169401198
75.1685073624
75.1676358726
75.166787202
75.1659618208
75.1651601907
75.1643827609
75.1636299644
75.1629022145
75.1621999015
75.1615233885
75.1608730074
75.1602490542
75.1596517854
75.1590814143
75.1585381096
75.1580219959
75.1575331567
75.1570716419
75.1566374788
75.1562306862
75.155851292
75.1554993498
75.1551749535
75.1548782455
75.1546094169
75.1543686991
75.1541563493
75.1539726291
75.1538177913
75.1536920558
75.1535956208
75.1535286285
75.1534912308
75.1534835003
75.1535055765
75.1538060912
75.1543355955
75.1551132792
75.1561624163
75.1575040138
75.1591574708
75.161140089
75.1634677413
75.1661540574
75.1692094681
75.1726405993
75.1764499039
75.1806351829
75.1851892624
75.1901003791
75.1953534603
75.2009312883
75.206813558
75.212972862
75.2193699354
75.2259524908
75.2326597128
75.239429175
75.2462010654
75.2529172788
75.2595186642
75.2659440976
75.2721343595
75.2780369412
75.283610515
75.2888222622
75.2936457016
75.2980533588
75.3020227627
75.3055323894
75.3085790019
75.3111597927
75.3133009616
75.3150085912
75.3163377559
75.3172780549
75.3179293911
75.3182148706
75.3183421221
75.3180311371
75.3177921817
75.3167980589
75.3160313404
1605.8706307
930.891356779
630.363659983
468.904620667
370.8536588
306.038226904
260.474756303
226.928786631
201.33080985
181.236366764
165.097557376
151.890808024
140.914302178
131.671805705
123.80302628
117.040266782
111.180561059
106.067254101
101.577518972
97.6137019962
94.0971930191
90.9639978006
88.1614837845
85.6459534386
83.3808137003
81.3351820249
79.4828155065
77.8012801959
76.2712992766
74.8762347455
73.6016694122
72.4350652638
71.3654810606
70.3833368793
69.4802166352
68.6487018346
67.8822312841
67.1749825083
66.5217713713
65.9179669882
65.3594194781
64.8423985216
64.3635409944
63.9198062519
63.5084378203
63.1269305139
62.7730020776
62.4445799603
62.2147072674
61.9925702549
61.7780395969
61.5710038878
61.3713546058
61.1789855826
60.9937924211
60.8156718553
60.6445210816
60.4802370681
60.3227158402
60.1718517515
60.0275367563
59.8896596949
59.7581056056
59.6327550824
59.5134837128
59.4001616325
59.2926532217
59.1908169516
59.0945053777
59.0035652681
58.9178378566
58.8371592095
58.7613606984
58.6902695674
58.6237095864
58.5615017697
58.5034651397
58.4494175103
58.3991762669
58.3525591244
58.3093848479
58.2694739281
58.2326492043
58.1987364334
58.1675648044
58.1389674011
58.1127816142
58.0888495081
58.0670181456
58.0471398728
58.0290725677
58.0126798532
57.9978312754
57.9844024472
57.9722751582
57.9613374499
57.9514836578
57.9426144201
57.9346366527
57.9274634911
57.921014199
57.9152140411
57.9099941215
57.9052911869
57.9010473961
57.8972100622
57.8937313726
57.8905680971
57.8876812917
57.8850367834
57.8826026883
57.880350164
57.8782554742
57.8762969142
57.874455441
57.8727144362
57.8710594683
57.8694780626
57.8679594799
57.8664945114
57.8650752899
57.8636951212
57.8623483331
57.8610301418
57.8597365337
57.8584641597
57.8572102435
57.8559725007
57.8547490694
57.8535384498
57.8523394529
57.8511511542
57.8499728525
57.8488040321
57.847644329
57.8464935028
57.8453514145
57.8442180129
57.8430933283
57.8419774702
57.8408706285
57.8397730716
57.838685141
57.83760724
57.8365398184
57.8354833538
57.8344383353
57.8334052492
57.8323845699
57.8313767564
57.8303822531
57.8294014927
57.8284349021
57.8274829067
57.8265459349
57.8256244204
57.824718803
57.8238295278
57.8229570435
57.8221017993
57.8212642423
57.8204448139
57.8196439476
57.8188620659
57.8180995782
57.817356879
57.8166343453
57.8159323351
57.8152511851
57.8145912088
57.8139526954
57.813335908
57.8127410843
57.8121684369
57.811618156
57.8110904136
57.810585369
57.8101031765
57.8096439929
57.8092079846
57.8087953329
57.808406237
57.8080409136
57.8076995931
57.8073825163
57.8070899267
57.8068220706
57.8065791864
57.8063615202
57.8061692878
57.8060027625
57.8058620194
57.8056392017
57.8056194956
57.8058195028
57.8062557134
57.806945969
57.8079076125
57.8091572877
57.8107104952
57.8125810425
57.8147803491
57.8173169322
57.8201959515
57.8234186984
57.8269821641
57.8308789996
57.835098004
57.8396246652
57.8444407003
57.849521958
57.854835717
57.860339654
57.8659838675
57.8717146885
57.8774776514
57.8832180295
57.8888801531
57.8944075053
57.8997453151
57.904844073
57.9096625882
57.9141670364
57.9183289993
57.9221215411
57.9255217698
57.9285107964
57.9310822064
57.933235642
57.9349875704
57.9363507193
57.9373605346
57.9380289207
57.9384130145
57.9385019885
57.9383941369
57.9380072631
57.9375344263
57.9367498695
57.935833499
1605.8707793
930.908931849
630.387072267
468.926615095
370.867760137
306.036845974
260.448774842
226.867505129
201.222154904
181.067242382
164.854250639
151.559385918
140.480973126
131.123239041
123.126628321
116.224408872
110.214751436
104.942246974
100.285361102
96.1477259891
92.4519729086
89.1352838544
86.146130011
83.441845356
80.9867982712
78.7509981261
76.7090223617
74.8391821953
73.1228674373
71.5440267146
70.0887508028
68.7449351424
67.5020037711
66.3506814419
65.2828040033
64.291159533
63.3693544702
62.5117002804
61.7131171444
60.9690518783
60.2754078441
59.6284850242
59.0249287607
58.4616859045
57.935967326
57.4452158689
56.9870790175
56.5594001236
56.2587487604
55.9669665402
55.6839816923
55.4097430911
55.1442008637
54.8873055278
54.6390070868
54.3992541007
54.1679927419
53.9451658468
53.7307119672
53.5245644344
53.3266504485
53.1368902072
52.9551960884
52.7814719036
52.6156122436
52.4575019402
52.3070156603
52.1640176423
52.0283615788
51.8998906456
51.7784376749
51.6638254701
51.5558672589
51.4543672775
51.3591214772
51.2699183416
51.1865397957
51.1087621892
51.0363573333
50.9690935732
50.9067368772
50.8490519282
50.7958032018
50.7467560193
50.7016775639
50.66033785
50.6225106382
50.5879742878
50.5565125426
50.5279152432
50.5019789645
50.478507574
50.4573127088
50.4382141722
50.4210402489
50.4056279397
50.3918231202
50.3794806237
50.368464254
50.3586467315
50.3499095768
50.3421429367
50.3352453563
50.3291235039
50.3236918535
50.3188723321
50.3145939402
50.3107923526
50.3074095106
50.3043943668
50.301699193
50.2992807398
50.2971032577
50.2951339489
50.2933438984
50.2917077277
50.290203255
50.2888111714
50.2875147352
50.2862994862
50.2851529825
50.2840645611
50.2830251199
50.2820269222
50.2810634208
50.2801291001
50.2792193369
50.2783302762
50.2774587226
50.2766020461
50.2757580988
50.274925143
50.2741017879
50.2732869342
50.2724797252
50.2716795053
50.2708857856
50.2700982165
50.2693165661
50.2685407053
50.2677705948
50.2670062755
50.2662478572
50.2654955084
50.2647494438
50.2640099126
50.263277187
50.2625515532
50.2618333046
50.261122737
50.2604201471
50.259725832
50.2590400892
50.2583632185
50.2576955223
50.2570373061
50.2563888789
50.2557505522
50.2551226392
50.2545054534
50.2538993069
50.2533045088
50.2527213638
50.2521501705
50.2515912205
50.2510447973
50.2505111751
50.2499906181
50.2494833796
50.2489897011
50.2485098115
50.248043927
50.2475922502
50.2471549708
50.2467322656
50.2463243005
50.2459312317
50.2455532088
50.2451903779
50.2448428841
50.2445108751
50.2441945027
50.2438939245
50.2436093043
50.2433408115
50.2430886213
50.2428529125
50.2426338703
50.2424316786
50.2422465288
50.2420786086
50.2419280635
50.2416461086
50.2414946827
50.2414861023
50.2416334867
50.2419497157
50.2424474686
50.2431389152
50.2440355503
50.2451477762
50.2464844695
50.2480526155
50.2498569709
50.2518996995
50.2541800529
50.2566942415
50.2594355599
50.2623945484
50.265558699
50.268911401
50.2724305945
50.2760882137
50.2798511293
50.2836830754
50.2875463362
50.2914023771
50.2952118906
50.2989351937
50.3025338216
50.3059726364
50.3092216288
50.3122556662
50.3150534492
50.317595632
50.3198660623
50.3218522508
50.3235495164
50.3249582813
50.3260885978
50.3269505763
50.3275659073
50.3279466349
50.3281259103
50.3281067196
50.3279402071
50.3275999576
50.3271707126
50.3265848142
50.3258616956
1605.87063765
930.893787183
630.365416296
468.902544919
370.842874082
306.011457384
260.422235773
226.838404523
201.188425815
181.026235629
164.802803612
151.493902203
140.397513543
131.017619573
122.994518976
116.061427876
110.016550014
104.704581328
100.004150116
95.8190952377
92.0722872578
88.7011716521
85.6545016186
82.8899077658
80.3720663986
78.071302512
75.9625126979
74.0243262691
72.2384455549
70.5891221655
69.0627372864
67.6474622057
66.3329812247
65.1102635019
63.9713736324
62.9093131968
61.9178873271
60.9915916985
60.1255163823
59.3152637653
58.5568783271
57.8467865017
57.1817451857
56.5587977013
55.9752362103
55.4285697212
54.9164969514
54.4368997142
54.0989498435
53.7701939541
53.4506034224
53.1401724648
52.8388963946
52.5467705077
52.2637889346
51.9899434646
51.7252223566
51.4696091496
51.2230814832
50.9856099418
50.7571569385
50.5376756531
50.3271090402
50.1253889239
49.9324351973
49.7481551456
49.5724429081
49.4051790909
49.2462305358
49.0954502533
48.9526775185
48.8177381325
48.6904448452
48.5705979374
48.4579859515
48.3523865624
48.2535675725
48.1612880148
48.0752993451
47.9953467045
47.9211702323
47.8525064105
47.7890894202
47.7306524926
47.6769292369
47.6276549281
47.582567742
47.5414099222
47.5039288692
47.4698781406
47.4390183561
47.4111179996
47.3859541157
47.3633128968
47.342990162
47.3247917271
47.3085336703
47.2940424964
47.2811552053
47.2697192708
47.2595925369
47.2506430378
47.2427487507
47.2357972887
47.2296855422
47.2243192777
47.2196127033
47.215488009
47.2118748921
47.208711479
47.2059398557
47.2035074893
47.2013708875
47.1994900921
47.1978298102
47.1963589993
47.1950504626
47.1938804651
47.1928283717
47.1918763099
47.1910088582
47.1902127603
47.1894766652
47.1887908909
47.1881472129
47.1875386726
47.1869594078
47.1864045017
47.1858698493
47.1853520408
47.1848482595
47.1843561921
47.1838739513
47.1834000083
47.1829331341
47.1824723497
47.1820168838
47.1815661376
47.1811196561
47.180677105
47.1802382512
47.1798029473
47.1793711172
47.1789427436
47.1785178568
47.1780965238
47.1776788398
47.1772649203
47.1768548954
47.1764489057
47.1760470996
47.1756496312
47.1752566594
47.1748683475
47.1744848622
47.1741063739
47.1737330556
47.1733650823
47.1730026307
47.1726458779
47.1722950007
47.1719501749
47.1716115742
47.1712793697
47.1709537295
47.1706348177
47.1703227944
47.1700178149
47.1697200296
47.1694295835
47.1691466157
47.1688712596
47.1686036419
47.1683438834
47.1680920986
47.1678483961
47.1676128797
47.1673856486
47.1671667992
47.1669564259
47.1667546228
47.1665614843
47.1663771067
47.1662015878
47.1660350284
47.1658775312
47.1657292024
47.1655901488
47.1654604829
47.1653403098
47.165229754
47.1651288713
47.164919812
47.1647837252
47.164727632
47.1647585896
47.1648839081
47.1651107907
47.1654462399
47.1658968919
47.166468808
47.1671672348
47.1679963941
47.1689592808
47.1700574481
47.1712908156
47.1726575643
47.1741541477
47.1757753208
47.1775139761
47.1793606509
47.181302916
47.1833251209
47.1854088179
47.1875336555
47.1896782155
47.1918204299
47.193937755
47.1960075105
47.1980077296
47.1999182445
47.2017215894
47.203402995
47.2049499363
47.2063513952
47.207598385
47.208684362
47.2096069036
47.2103667937
47.2109694687
47.2114214137
47.2117339848
47.2119157794
47.2119831143
47.2119422481
47.2118155323
47.2116002585
47.2113265636
47.2109878299
47.2105544288
1605.87074168
930.906523524
630.383664409
468.922463422
370.862602229
306.029995121
260.439021631
226.853055454
201.200599958
181.035556598
164.808816588
151.496045772
140.395103013
131.009840862
122.980432508
116.039980827
109.986594407
104.66489515
99.9534590265
95.7560932683
91.9956557534
88.6095964251
85.5466885876
82.7645973764
80.2280469449
77.9074222734
75.7776906801
73.8175613324
72.0088238032
70.3358226039
68.7850358779
67.3447345309
66.0047039746
64.7560150047
63.5908335671
62.5022615876
61.4842028636
60.5312493934
59.6385845635
58.8019003976
58.0173266711
57.281370138
56.5908624496
55.9429155999
55.33488391
54.7643317121
54.2290060009
53.7268305045
53.3725586419
53.0275247433
52.6917225223
52.3651698711
52.0478860719
51.7398905582
51.4412016326
51.1518351544
50.8718032098
50.6011127786
50.3397644117
50.0877509344
49.8450561937
49.611653865
49.3875063374
49.1725636928
48.9667627979
48.7700265262
48.5822631232
48.4033657299
48.2332120708
48.071664316
47.9185691202
47.7737578395
47.6370469261
47.5082384958
47.3871210608
47.2734704181
47.1670506797
47.0676154279
46.9749089792
46.8886677353
46.8086216032
46.7344954616
46.6660106529
46.6028864807
46.5448416924
46.4915959278
46.442871115
46.3983927995
46.3578913904
46.3211033126
46.2877720543
46.2576491023
46.2304947593
46.2060788398
46.1841812438
46.164592408
46.147113639
46.1315573308
46.1177470739
46.105517662
46.0947150053
46.0851959575
46.0768280668
46.0694892602
46.0630674699
46.057460213
46.0525741328
46.0483245117
46.0446347658
46.0414374621
46.0386694475
46.0362733938
46.0342018222
46.0324110769
46.0308625677
46.0295223211
46.0283605426
46.027351202
46.0264716428
46.0257022189
46.0250259568
46.024428247
46.0238965619
46.0234201993
46.0229900514
46.0225983972
46.0222387165
46.0219055254
46.0215942301
46.0213009988
46.0210226494
46.0207565513
46.0205005406
46.0202528461
46.0200120259
46.0197769127
46.0195465682
46.0193202435
46.0190973469
46.0188774169
46.0186600998
46.0184451306
46.0182323178
46.0180215293
46.0178126813
46.017605728
46.0174006539
46.0171974663
46.0169961908
46.0167968664
46.0165995425
46.0164042772
46.0162111347
46.0160201848
46.0158315013
46.0156451617
46.0154612462
46.015279837
46.0151010177
46.0149248732
46.0147514884
46.0145809483
46.0144133374
46.0142487393
46.0140872363
46.0139289096
46.0137738384
46.0136221002
46.0134737703
46.0133289221
46.0131876261
46.0130499506
46.012915961
46.0127857202
46.0126592881
46.0125367223
46.0124180777
46.0123034073
46.0121927627
46.012086194
46.0119837509
46.0118854831
46.0117914403
46.0117016729
46.0116162318
46.0115351691
46.0114585371
46.0113863897
46.0113187799
46.0112557633
46.0111973919
46.0111437088
46.0110312074
46.0109533394
46.0109135725
46.0109155512
46.0109629035
46.0110592309
46.0112080254
46.0114126066
46.0116760155
46.0120009013
46.0123894176
46.0128431211
46.0133628666
46.0139487108
46.0145998525
46.0153146184
46.0160904573
46.0169238577
46.0178101381
46.0187431952
46.0197154039
46.0207177967
46.021740445
46.0227728305
46.0238040659
46.0248230268
46.0258185561
46.0267798684
46.027697045
46.028561438
46.0293657096
46.0301036658
46.0307700011
46.0313605043
46.031872277
46.0323043489
46.0326573744
46.0329340522
46.0331378183
46.0332740568
46.0333474114
46.0333652983
46.0333317445
46.0332562079
46.0331397374
46.0329935808
46.0328195254
46.0325986568
1605.87066289
930.895751408
630.368136267
468.905555971
370.845912463
306.014282104
260.424587171
226.839961914
201.188771966
181.024830567
164.798966632
151.486800401
140.386156804
131.000862327
122.971068696
116.029859499
109.975324811
104.65206837
99.9386486281
95.7388566215
91.9755361753
88.586126102
85.5193921642
82.7329960597
80.1916629505
77.8657834346
75.7303350448
73.7640415949
71.9487114522
70.268711711
68.7105464861
67.2625156349
65.9144360948
64.6574123648
63.4836458782
62.3862754365
61.3592426956
60.3971780793
59.4953035394
58.649349375
57.8554829206
57.1102473598
56.4105092587
55.7534136573
55.1363457471
54.5568982963
54.0128441017
53.5021302163
53.1416537343
52.7904004629
52.4483734978
52.1156007689
51.7921118528
51.4779366765
51.1731041772
50.8776409274
50.5915697397
50.3149082667
50.0476676092
49.7898509519
49.5414522426
49.3024549338
49.072830804
48.8525388778
48.6415244601
48.4397183044
48.2470359267
48.0633770808
47.8886254034
47.7226482377
47.56529664
47.4164055718
47.2757942754
47.1432668302
47.0186128815
46.9016085322
46.7920173837
46.6895917112
46.5940737541
46.5051971035
46.422688165
46.3462676754
46.2756522513
46.2105559489
46.1506918113
46.0957733856
46.045516189
45.9996391077
45.9578657121
45.9199254754
45.8855548854
45.8544984395
45.8265095164
45.8013511232
45.778796512
45.7586296712
45.7406456899
45.7246510029
45.7104635202
45.6979126499
45.6868392207
45.6770953153
45.6685440234
45.6610591237
45.6545247068
45.6488347471
45.6438926357
45.6396106825
45.6359095975
45.6327195551
45.629975144
45.6276169511
45.6255957839
45.6238663879
45.6223887469
45.6211276182
45.620052082
45.6191351128
45.6183531771
45.6176858579
45.6171155066
45.6166269243
45.6162070693
45.6158447931
45.6155306001
45.6152564335
45.6150154822
45.6148020101
45.6146112049
45.614439045
45.6142821823
45.6141378412
45.6140037299
45.613877964
45.6137590008
45.6136455831
45.613536691
45.6134315017
45.6133293551
45.6132297254
45.613132197
45.6130364448
45.6129422175
45.6128493239
45.6127576213
45.6126670054
45.612577403
45.6124887652
45.6124010621
45.6123142788
45.6122284118
45.6121434673
45.6120594582
45.6119764034
45.6118943261
45.6118132531
45.6117332139
45.6116542402
45.6115763651
45.611499623
45.611424049
45.6113496785
45.6112765471
45.6112046907
45.6111341443
45.6110649432
45.6109971217
45.6109307138
45.6108657526
45.6108022704
45.6107402986
45.6106798677
45.6106210072
45.6105637453
45.6105081093
45.6104541254
45.6104018187
45.6103512137
45.6103023338
45.6102552021
45.6102098414
45.6101662743
45.6101245232
45.6100846107
45.6100465596
45.6100103927