/*--------------------------------*- C++ -*----------------------------------*\
  =========                 |
  \\      /  F ield         | OpenFOAM: The Open Source CFD Toolbox
   \\    /   O peration     | Website:  https://openfoam.org
    \\  /    A nd           | Version:  6
     \\/     M anipulation  |
\*---------------------------------------------------------------------------*/
FoamFile
{
    version     2.0;
    format      ascii;
    class       volScalarField;
    location    "0.261799";
    object      p;
}
// * * * * * * * * * * * * * * * * * * * * * * * * * * * * * * * * * * * * * //

dimensions      [0 2 -2 0 0 0 0];

internalField   nonuniform List<scalar> 
43264
(
40.4048171125
41.0032760043
41.3049983353
41.6753268104
42.0055553287
42.3375050146
42.6702521248
43.0034708017
43.3412258809
43.6801414611
44.0202271654
44.3587702119
44.6949571037
45.0279466465
45.3579590787
45.6853649008
46.0105772083
46.3336219013
46.654093696
46.9711969102
47.2839337687
47.591294096
47.89240774
48.1866196636
48.4734966071
48.7527864226
49.0243591028
49.2881507783
49.5441241957
49.7922469218
50.0324870359
50.264815773
50.4892191302
50.7057013745
50.9142991212
51.1150704193
51.3081167123
51.4935429464
51.671515703
51.8421549268
52.0057039778
52.162231391
52.3121265136
52.455247471
52.5923694431
52.7226948059
52.8481781132
52.9658463457
53.0669715129
53.1429374692
53.2211893889
53.2977806335
53.3726782255
53.4463312434
53.5185307127
53.5892616474
53.6585147072
53.726253952
53.7924534096
53.857086631
53.9201261769
53.9815452827
54.0413174452
54.0994165788
54.1558171934
54.2104944073
54.2634239131
54.3145819003
54.3639449733
54.4114900995
54.4571945923
54.5010361207
54.5429927265
54.5830428312
54.6211652243
54.6573390329
54.6915436865
54.7237588875
54.7539645993
54.7821410537
54.8082687753
54.832328619
54.8543018142
54.8741700115
54.8919153297
54.9075203978
54.9209683932
54.932243075
54.9413288127
54.9482106103
54.9528741286
54.9553057053
54.9554923747
54.9534218869
54.9490827243
54.9424641149
54.9335560383
54.9223492244
54.9088351448
54.8930059984
54.8748546965
54.8543748486
54.8315607574
54.806407414
54.7789105179
54.7490664653
54.7168723853
54.6823261296
54.6454262239
54.6061721967
54.5645638208
54.5206025833
54.4742897114
54.4256258573
54.3746139027
54.3212574264
54.265560289
54.2075271543
54.1471634053
54.084475114
54.0194690575
53.952152701
53.8825341821
53.8106222972
53.736426487
53.6599568234
53.5812239956
53.5002392949
53.4170145989
53.3315623565
53.2438955724
53.1540277937
53.0619730967
52.9677460738
52.871361818
52.7728359053
52.6721843739
52.5694237004
52.4645707762
52.3576428836
52.2486576764
52.1376331626
52.0245876929
51.9095399496
51.7925089379
51.6735139746
51.5525746738
51.4297109293
51.3049428923
51.1782909467
51.0497756814
50.9194178635
50.7872384098
50.6532583602
50.517498851
50.3799810896
50.2407263279
50.0997558373
49.9570908808
49.8127526859
49.666762415
49.519141135
49.3699097852
49.2190891446
49.0666997972
48.9127620972
48.7572961315
48.6003216843
48.4418581942
48.2819247215
48.1205398929
47.9577218836
47.7934883255
47.6278563519
47.4608423749
47.2924623761
47.1227312
46.9516637729
46.7792725981
46.6055724338
46.4305711195
46.2542870854
46.07671545
45.8978932003
45.7177731875
45.5364674026
45.3537764593
45.1700981171
44.9846749707
44.7989710378
44.6101026169
44.4238591869
44.056613214
43.557973902
43.0081181707
42.451531898
41.8694180823
41.2686520235
40.6462454904
40.0030782759
39.338605848
38.6529219973
37.9459633568
37.2178290304
36.4686614895
35.6986797633
34.9081910376
34.0975396676
33.2671930634
32.417602444
31.5494225444
30.6631786275
29.7597674338
28.8396745663
27.9041151919
26.9532849266
25.98894513
25.0105666327
24.0210145481
23.0181467656
22.0070808769
20.9822509143
19.9534179753
18.9080274965
17.8653328137
16.7988209062
15.7467672189
14.6552805547
13.599936781
12.4741689286
11.4250273284
10.2467598483
9.21986690185
7.95667245278
6.97886417155
5.57713568863
4.68785531152
3.0689080978
2.29822352783
0.386355705328
15.6583490423
14.9104813324
14.9425981638
14.7039185388
14.6577923915
14.5725857287
14.5435595208
14.5190354215
14.5171506383
14.5261152217
14.5495230474
14.5847085811
14.6317256907
14.6886649913
14.753642708
14.8242267353
14.8982352171
14.9739044175
15.0501187066
15.1263368969
15.202426447
15.2784337625
15.354398045
15.4302407263
15.5057388079
15.580557823
15.6543128391
15.7266299505
15.7971903063
15.8657524638
15.9321531344
15.9962972427
16.0581378598
16.1176629941
16.1748742472
16.2297890489
16.2824157173
16.3327843733
16.3808921425
16.4267967367
16.4704622983
16.512024306
16.5513423273
16.5887665401
16.6238231062
16.6574781604
16.688222445
16.7189086054
16.7414340989
16.7665544241
16.7885542238
16.8104334116
16.8322465904
16.8535786508
16.8745546663
16.8951495922
16.9153295482
16.9350841896
16.9543962519
16.9732492507
16.9916283147
17.0095187777
17.0269064404
17.0437774331
17.0601180427
17.0759146872
17.0911539487
17.1058226481
17.1199079258
17.133397292
17.1462786421
17.1585402464
17.1701707341
17.1811590886
17.1914946656
17.2011672307
17.2101670061
17.2184847121
17.2261115937
17.2330394275
17.2392605125
17.2447676478
17.2495541031
17.2536135855
17.2569402075
17.2595284569
17.2613731705
17.2624695129
17.2628129574
17.2623992713
17.2612245028
17.2592849682
17.2565772401
17.253098135
17.2488447025
17.2438142184
17.2380041837
17.2314123306
17.2240366355
17.2158753374
17.2069269571
17.197190313
17.1866645344
17.1753490555
17.1632436288
17.1503482801
17.1366633453
17.1221894367
17.1069273815
17.0908787975
17.0740453595
17.0564286294
17.0380308426
17.0188542209
16.9989013109
16.9781751744
16.9566791666
16.9344168591
16.9113920647
16.8876088123
16.8630713413
16.8377841072
16.8117517808
16.7849792494
16.7574716176
16.7292342061
16.7002725506
16.6705924013
16.640199722
16.60910069
16.5773016934
16.5448093281
16.511630393
16.4777718854
16.4432409974
16.4080451143
16.3721918163
16.335688882
16.2985442924
16.2607662349
16.2223631032
16.183343495
16.1437162042
16.1034902121
16.0626746764
16.0212789221
15.9793124356
15.9367848622
15.8937060078
15.8500858442
15.8059345167
15.7612623533
15.7160798734
15.6703977981
15.6242270587
15.5775788067
15.5304644237
15.4828955325
15.4348840104
15.3864420038
15.3375819463
15.2883165784
15.2386589707
15.1886225496
15.1382211261
15.087468927
15.0363806305
14.9849714024
14.9332569404
14.8812535139
14.8289780222
14.7764480297
14.723681856
14.6706985713
14.6175181871
14.5641614774
14.51065053
14.457007883
14.4032584293
14.349425933
14.2955400441
14.2416228978
14.1877154023
14.1338264276
14.080031801
14.0262821308
13.9727770311
13.9192370535
13.8663208341
13.8128697684
13.7612604185
13.706961277
13.6169952917
13.4352233934
13.273548251
13.0930264592
12.9097937392
12.7179139154
12.5196704158
12.3144057667
12.1024996958
11.88395936
11.6589233644
11.4274803988
11.18974732
10.9458363034
10.695889225
10.44004547
10.1784933983
9.91138882847
9.63896443942
9.36134851927
9.07883240801
8.79147931191
8.49972257689
8.20348063552
7.90345085564
7.59918251945
7.29188226066
6.98031550308
6.66675585906
6.3483780016
6.02963621135
5.70450639071
5.38182141904
5.04925029862
4.72428003504
4.38233025946
4.05768331048
3.70230125452
3.38255313693
3.00608015393
2.69974780983
2.28834341197
2.01181873104
1.54088967519
1.32718928507
0.752868204066
0.676459867767
-0.083013771598
34.0513907339
34.4112955237
34.6941468146
34.9921689228
35.2893187109
35.5778135493
35.8741502532
36.1668874444
36.4639242164
36.76029309
37.0580361844
37.3551537402
37.6517615279
37.9469996992
38.2406072853
38.532112986
38.8211515181
39.1072609199
39.3899523085
39.6686939756
39.9429581807
40.2122478541
40.4761234236
40.7342132114
40.9862138941
41.2318828883
41.4710283972
41.7034998705
41.9291814758
42.1479876123
42.3598616591
42.5647738883
42.7627226898
42.9537303643
43.1378467688
43.3151386009
43.4857012928
43.649632543
43.8070696335
43.9581199299
44.1029715015
44.2416999251
44.3745912516
44.5015854077
44.6232276524
44.7390225055
44.8502842326
44.9551764592
45.0445129048
45.1128260038
45.1827579544
45.2511498218
45.3180649972
45.3838414425
45.4483118722
45.5114703165
45.573311643
45.6338093456
45.6929445844
45.7506978213
45.8070484594
45.8619761125
45.915460234
45.9674801717
46.0180152567
46.0670448157
46.1145482029
46.1605048304
46.2048941967
46.2476959176
46.2888897566
46.328455654
46.3663737543
46.4026244306
46.4371883085
46.4700462891
46.5011795718
46.5305696793
46.5581984823
46.5840482253
46.6081015516
46.630341528
46.6507516684
46.6693159559
46.686018864
46.7008453754
46.7137810004
46.7248117924
46.7339243632
46.7411058961
46.7463441577
46.749627509
46.7509449142
46.7502859496
46.7476408101
46.7430003155
46.7363559149
46.7276996912
46.7170243647
46.7043232954
46.6895904873
46.6728205891
46.6540089013
46.6331513669
46.6102445992
46.585285835
46.5582730012
46.5292046532
46.4980799368
46.4648992673
46.4296634769
46.3923736868
46.3530314932
46.3116387525
46.2681984654
46.2227143194
46.1751906235
46.1256322945
46.0740448657
46.0204344703
45.9648078332
45.9071722655
45.8475356536
45.7859064495
45.7222936607
45.6567068397
45.5891560726
45.5196519675
45.4482056421
45.3748287117
45.2995332764
45.2223319077
45.1432376349
45.0622639321
44.9794247028
44.894734266
44.8082073409
44.7198590317
44.6297048121
44.53776051
44.4440422919
44.3485666474
44.2513503735
44.1524105588
44.051764567
43.9494300205
43.8454247835
43.739766944
43.6324747967
43.5235668245
43.4130616807
43.30097817
43.1873352302
43.0721519124
42.9554473619
42.8372407982
42.7175514941
42.5963987546
42.4738018952
42.3497802192
42.2243529939
42.0975394264
41.9693586378
41.8398296366
41.7089712905
41.5768022971
41.4433411522
41.3086061187
41.1726151896
41.0353860567
40.8969360637
40.7572821841
40.6164409457
40.474428454
40.3312602199
40.1869513629
40.0415160835
39.8949685518
39.7473210504
39.5985874428
39.4487763241
39.2979041677
39.1459697637
38.9930035806
38.8389721806
38.6839630983
38.5278268772
38.3708704028
38.2125134613
38.0538906166
37.8928150068
37.7335285762
37.4215755168
36.9924844885
36.524114494
36.0492421494
35.5535851509
35.0421649278
34.5127497134
33.9658822277
33.4011645231
32.8186440332
32.2182873897
31.6001783846
30.9644460221
30.3112770735
29.6409334964
28.9537065014
28.2499926406
27.5301705313
26.79478619
26.0442625227
25.2793317053
24.5003705798
23.7083853548
22.9035170329
22.0872449599
21.2590924693
20.4214677186
19.5725199122
18.7165658289
17.8488609092
16.9776527699
16.0922902619
15.2090372263
14.3054576725
13.4138664432
12.4887270953
11.5938041221
10.6391112153
9.74868137462
8.74875113399
7.87606503772
6.80268463581
5.97020887487
4.77534578753
4.0186554563
2.62468665958
1.99223050122
0.279174594747
20.8711306709
20.2800826874
20.3416669359
20.1461990364
20.1328002228
20.0796165463
20.0866430815
20.0993518272
20.1387598792
20.1908033043
20.258742276
20.3381070234
20.428274313
20.5269828422
20.6328408422
20.7442307422
20.8598567337
20.9785425074
21.0993256188
21.2213927737
21.3440646578
21.4667561893
21.5889538357
21.7101978241
21.8300739328
21.9482102307
22.06427658
22.1779851285
22.2890897022
22.3973851657
22.5027042214
22.6049159748
22.7039200432
22.7996470958
22.8920489096
22.9811059919
23.0668072247
23.1491764456
23.228222357
23.3040165486
23.3765585328
23.4459981723
23.5122569766
23.5756664811
23.635877949
23.6937256507
23.7480185753
23.801087664
23.843142393
23.8825985987
23.9196692342
23.9563134406
23.9926066713
24.0282400831
24.063286327
24.0977206771
24.1315083102
24.1646312635
24.1970670646
24.2287935307
24.2597895933
24.2900343526
24.3195073196
24.3481884288
24.3760579953
24.4030967264
24.4292857217
24.4546064714
24.4790408579
24.5025711568
24.525180039
24.5468505741
24.5675662357
24.5873109063
24.6060688836
24.6238248867
24.6405640621
24.6562719896
24.6709346886
24.6845386233
24.6970707084
24.7085183147
24.7188692738
24.7281118842
24.7362349154
24.7432276138
24.7490797071
24.7537814095
24.7573234267
24.75969696
24.7608937116
24.7609058883
24.7597262057
24.7573478925
24.7537646932
24.7489708721
24.7429612157
24.7357310356
24.7272761708
24.7175929891
24.7066783897
24.6945298029
24.6811451925
24.6665230545
24.6506624172
24.6335628393
24.6152244123
24.5956477594
24.5748339354
24.5527853563
24.5295044682
24.504994047
24.479257111
24.4522965081
24.42411647
24.3947217368
24.3641174914
24.3323094109
24.2993036478
24.2651068136
24.2297259774
24.1931686572
24.1554428115
24.1165568316
24.0765195329
24.0353401466
23.9930283112
23.9495940638
23.9050478312
23.8594004207
23.8126630116
23.7648471452
23.7159647161
23.6660279622
23.615049456
23.5630420943
23.51001909
23.4559939621
23.4009805271
23.3449928896
23.2880454336
23.2301528133
23.1713299436
23.1115919913
23.0509543653
22.9894327081
22.9270428864
22.863800983
22.7997232887
22.7348262945
22.669126685
22.6026413318
22.5353872871
22.4673817784
22.3986422027
22.3291861218
22.2590312576
22.188195488
22.1166968433
22.0445535028
21.9717837934
21.8984061868
21.8244392997
21.7499018932
21.6748128745
21.5991912981
21.5230563699
21.4464274505
21.3693240623
21.2917658932
21.2137728124
21.1353648655
21.0565623146
20.9773855964
20.8978554431
20.8179926922
20.7378187044
20.6573546034
20.5766228073
20.4956441089
20.4144434037
20.3330386185
20.2514622563
20.1697196261
20.0878699127
20.0058689616
19.9238741814
19.8416531057
19.7597311073
19.677162625
19.5958594575
19.5121933357
19.363687642
19.1064033413
18.8597305956
18.5950898497
18.3243391971
18.0430462887
17.7528799026
17.4533224663
17.1446666806
16.8269366541
16.5002889475
16.1648597611
15.8208327889
15.4683999816
15.1077970657
14.739256521
14.3630725932
13.9794975939
13.5888914512
13.1914861477
12.7877332483
12.3777760235
11.9622338504
11.5410266769
11.1151045962
10.6838806228
10.2489862624
9.80876749223
9.36628705002
8.91771163092
8.46905987128
8.01211362552
7.55888843959
7.09248208804
6.6368594231
6.15813667404
5.70366791978
5.20677251067
4.7599383291
4.23384351768
3.80714376452
3.23171750929
2.84998006802
2.18845114383
1.90287666252
1.08585477012
1.0100324879
-0.106576514415
30.9539127564
31.1373097476
31.3967384192
31.6150053785
31.8746105808
32.1166208099
32.379374658
32.6387870371
32.9073596355
33.1771359963
33.451084365
33.7264945812
34.0035539918
34.2810749207
34.5585855857
34.8353324561
35.1107339364
35.3841646207
35.6550468096
35.9228140647
36.1869368507
36.4469249096
36.7023380378
36.9527889591
37.1979438852
37.4375192559
37.6712772225
37.8990206117
38.1205888513
38.3358544095
38.5447208981
38.7471205261
38.9430138475
39.1323861042
39.3152490071
39.4916330062
39.6615949414
39.8251996331
39.982545121
40.133714413
40.2788518124
40.4180279719
40.5514655555
40.679147953
40.8014891348
40.9181706259
41.0301607032
41.1361875785
41.2259756193
41.2963077927
41.3676535151
41.437661318
41.5063687611
41.5740113053
41.6404533928
41.7056783138
41.7696702569
41.8323980273
41.8938363151
41.9539595805
42.0127417744
42.0701572569
42.1261805168
42.1807861999
42.233949166
42.2856444938
42.3358475017
42.3845337698
42.4316791588
42.4772598317
42.5212522736
42.5636333117
42.6043801351
42.6434703143
42.6808818206
42.7165930459
42.7505828223
42.7828304429
42.8133156813
42.8420188123
42.8689206308
42.8940024718
42.9172462279
42.9386343681
42.9581499539
42.9757766559
42.9914987691
43.0053012271
43.0171696163
43.0270901883
43.0350498721
43.0410362857
43.0450377461
43.0470432795
43.0470426301
43.0450262684
43.0409853989
43.0349119665
43.026798663
43.0166389317
43.0044269729
42.990157746
42.9738269731
42.9554311445
42.9349675072
42.9124340902
42.8878296734
42.8611538173
42.8324067343
42.8015903855
42.7687068175
42.7337586021
42.6967489002
42.6576808093
42.6165591848
42.5733895859
42.5281782143
42.4809320005
42.4316585717
42.3803662298
42.3270639498
42.2717613653
42.2144687546
42.1551970279
42.0939577131
42.0307629405
41.965625428
41.8985584654
41.8295758981
41.7586921107
41.6859220098
41.6112810067
41.5347849997
41.4564503564
41.376293895
41.2943328657
41.2105849323
41.1250681529
41.0378009609
40.9488021455
40.8580908326
40.765686465
40.6716087828
40.5758778041
40.4785138048
40.3795372989
40.2789690192
40.1768298973
40.0731410438
39.9679237295
39.8611993654
39.7529894839
39.6433157196
39.5321997908
39.4196634803
39.3057286177
39.1904170608
39.0737506776
38.9557513293
38.8364408522
38.7158410414
38.5939736336
38.4708602913
38.3465225863
38.2209819845
38.0942598302
37.9663773312
37.8373555448
37.7072153612
37.5759774933
37.4436624555
37.3102905629
37.1758818923
37.0404563166
36.9040333978
36.7666325524
36.6282726898
36.4889728693
36.3487509842
36.2076262658
36.0656143837
35.9227368956
35.7790028809
35.6344444838
35.4890479921
35.3428873143
35.1958653403
35.0482149524
34.8995283517
34.7506371781
34.5999702664
34.4506174233
34.1608510855
33.7544229419
33.3156063879
32.8690133597
32.4041506374
31.9247754715
31.4293823913
30.9184222733
30.3916959465
29.8492980793
29.2912771118
28.7177588196
28.1289102365
27.5249400273
26.9061227754
26.272752185
25.625215901
24.9638757575
24.2892462748
23.6017148136
22.9019558326
22.1902940173
21.4676466938
20.7340984118
19.9910023696
19.2378449617
18.4768461978
17.706179793
16.9298582884
16.1433161701
15.3542710002
14.5525888383
13.7535449767
12.9359047788
12.1300802861
11.2930619853
10.4849695772
9.6207756687
8.81775934144
7.91121341298
7.12621097191
6.14967168236
5.4058426802
4.3105647958
3.64873549144
2.34978950447
1.84145592816
0.186874734347
23.618147587
23.1602540286
23.2485261901
23.1171971708
23.1419162596
23.1319493752
23.1775806886
23.2292259304
23.3070840101
23.3976024824
23.5040223614
23.621789153
23.7503183803
23.887386482
24.0317415037
24.1818957163
24.336664185
24.4949136678
24.6556569155
24.817995416
24.9811275852
25.1443318273
25.3069624775
25.4684426855
25.6282598454
25.7859609367
25.9411482287
26.0934754629
26.2426438464
26.3883990846
26.5305274393
26.6688539286
26.8032375713
26.9335716945
27.0597763305
27.181803614
27.2996222308
27.413236366
27.5226481779
27.627913953
27.7290448452
27.8261676676
27.9192491379
28.0085576524
28.09387349
28.175834691
28.2536196525
28.3289518912
28.3903509032
28.4446866311
28.4969698019
28.5486609043
28.5997998076
28.6501465434
28.699743476
28.7485603507
28.7965594165
28.8437151762
28.8899986736
28.9353810609
28.9798342177
29.0233300792
29.0658408383
29.1073389773
29.147797257
29.1871887462
29.2254868411
29.2626652848
29.2986981894
29.3335600585
29.3672258104
29.3996708033
29.4308708598
29.4608022919
29.4894419252
29.5167671227
29.5427558073
29.5673864831
29.5906382559
29.612490852
29.6329246359
29.6519206268
29.6694605135
29.6855266684
29.7001021599
29.7131707646
29.7247169773
29.7347260221
29.7431838608
29.7500772028
29.7553935128
29.7591210201
29.7612487255
29.7617664099
29.760664641
29.7579347803
29.7535689895
29.7475602361
29.7399022985
29.7305897693
29.7196180604
29.7069834028
29.6926828517
29.6767142817
29.6590763952
29.6397687066
29.6187915609
29.5961461213
29.5718342099
29.5458596599
29.518226104
29.4889378378
29.4579999108
29.4254171724
29.3911964415
29.35534518
29.3178715319
29.2787843858
29.2380933531
29.1958087418
29.1519415485
29.1065034452
29.0595067627
29.0109644747
28.9608901823
28.9092980969
28.8562030238
28.8016203446
28.7455659994
28.6880564695
28.6291087591
28.5687403767
28.5069693175
28.443814044
28.3792934682
28.3134269323
28.2462341903
28.1777353891
28.1079510498
28.0369020493
27.9646096019
27.8910952414
27.8163808029
27.7404884058
27.6634404359
27.5852595287
27.5059685521
27.4255905903
27.344148927
27.2616670301
27.1781685361
27.0936772349
27.008217056
26.921812054
26.8344863956
26.7462643467
26.6571702597
26.5672285618
26.4764637437
26.3849003483
26.2925629606
26.1994761977
26.1056646989
26.0111531171
25.91596611
25.8201283321
25.7236644267
25.6265990185
25.5289567076
25.4307620602
25.3320396077
25.23281383
25.1331091705
25.03294999
24.9323606405
24.8313653066
24.7299882989
24.6282534707
24.5261853373
24.4238068918
24.3211438321
24.218216348
24.1150550513
24.0116700489
23.9081109597
23.804350446
23.7005101785
23.5964224515
23.4924808147
23.3879885603
23.2843661209
23.1789271392
22.9870347884
22.6740106459
22.365049381
22.0391041115
21.7047396931
21.358834389
21.0025843426
20.6357044132
20.2584703117
19.8709976793
19.4735040821
19.066205128
18.6493622606
18.2232477956
17.7881795222
17.3444693484
16.8924943591
16.4325824526
15.9651786711
15.4905841148
15.0093408468
14.5216424948
14.0282055627
13.5289581015
13.0249717969
12.5155925585
12.002645657
11.4842625033
10.963867796
10.4371165487
9.91076772114
9.37549469229
8.8448649664
8.29965348328
7.76706317607
7.20843147819
6.67779932932
6.09877473475
5.5774807253
4.96503434006
4.46757676965
3.79789775154
3.35322650288
2.5826779882
2.24962770655
1.29630574978
1.19808775319
-0.0999084566805
29.1863757929
29.2496147694
29.4891414014
29.6494333594
29.8780554554
30.0847883719
30.3214363479
30.5566021038
30.8053566146
31.0579754271
31.3177622085
31.5814717391
31.8491971819
32.1194875956
32.3917016313
32.6648962153
32.9383344111
33.2112518868
33.4829569863
33.7527873276
34.0201307686
34.2844207123
34.5451417157
34.8018292501
35.0540695877
35.3014975938
35.5437940472
35.7806825027
36.0119265232
36.2373269372
36.4567199391
36.669974618
36.8769919682
37.0777016439
37.272062445
37.4600563862
37.6416933363
37.8169977143
37.9860254171
38.1488295542
38.3055133676
38.4561345109
38.6008643062
38.7397086125
38.8729863891
39.0004938741
39.1229592244
39.2394928885
39.3379034375
39.4165679968
39.495744106
39.5736776947
39.6503850999
39.7260257802
39.8004859625
39.8737396367
39.945761348
40.0165142969
40.0859660371
40.1540839816
40.2208352009
40.2861871117
40.3501072838
40.4125634729
40.4735236759
40.5329561479
40.5908294312
40.6471123835
40.7017742054
40.7547844682
40.8061131408
40.8557306175
40.9036077447
40.9497158485
40.9940267615
41.0365128507
41.077147045
41.1159028638
41.152754445
41.1876765741
41.2206447123
41.2516350251
41.2806244097
41.3075905224
41.332511805
41.3553675103
41.3761377265
41.3948034003
41.4113463593
41.4257493321
41.437995968
41.4480708543
41.4559595334
41.461648517
41.4651253004
41.4663783741
41.4653972348
41.4621723948
41.4566953902
41.4489587873
41.4389561887
41.4266822357
41.4121326156
41.3953040523
41.3761943311
41.3548022533
41.3311276936
41.3051715678
41.2769356185
41.2464240251
41.2136406567
41.178590398
41.1412792793
41.1017130963
41.0598999951
41.0158489126
40.9695696639
40.9210730068
40.8703706175
40.817475055
40.7623997481
40.7051589773
40.6457678523
40.5842422882
40.5205989843
40.4548553991
40.3870297267
40.3171408713
40.245208422
40.1712526264
40.0952943643
40.0173551209
39.9374569595
39.855622494
39.7718748615
39.6862376943
39.5987350915
39.5093915915
39.418232143
39.3252820772
39.2305670797
39.1341131621
39.0359466347
38.9360940787
38.8345823188
38.7314383963
38.626689542
38.5203631501
38.4124867512
38.3030879873
38.1921945853
38.0798343327
37.9660350524
37.8508245787
37.7342307338
37.6162813043
37.4970040189
37.3764265261
37.2545763724
37.1314809821
37.0071676357
36.8816634509
36.7549953629
36.6271901054
36.4982741927
36.3682739019
36.2372152556
36.1051240062
35.9720256182
35.8379452557
35.7029077626
35.5669376579
35.4300591031
35.2922959255
35.1536715353
35.0142090495
34.8739310166
34.7328599162
34.5910171609
34.4484249952
34.3051027943
34.1610741965
34.0163532733
33.8709712736
33.7249248204
33.5782761977
33.4309590965
33.2831548034
33.1345637349
32.9858152241
32.8357391474
32.6866546827
32.3996083272
31.9907684165
31.5551878119
31.1108178761
30.6502127351
30.1760607572
29.6874045843
29.1846171316
28.6676561469
28.1366753547
27.5918138502
27.0332663247
26.46126758
25.8760826455
25.2780342881
24.6674535826
24.0447548564
23.4103150553
22.7646516029
22.1081430518
21.441441612
20.7648392053
20.0792044463
19.3845668115
18.6822031943
17.9715288287
17.2546578646
16.5296889536
15.8004920653
15.0624466699
14.3230763011
13.5722569596
12.824985297
12.0601695105
11.3077986899
10.5252299758
9.77195889375
8.96360091704
8.21669139108
7.36717330924
6.64001297388
5.72124668526
5.03879847041
4.00041738319
3.4087629744
2.16088469337
1.74389502608
0.125095760789
25.0344300896
24.6695960969
24.7820212735
24.7032200424
24.7621972698
24.7910714748
24.8717611962
24.9588139021
25.0713932225
25.1966855904
25.3379354964
25.4907580325
25.6546616878
25.8275039601
26.0080990862
26.1949986336
26.387034013
26.5830615071
26.782061241
26.9830836882
27.1852632189
27.3878056162
27.5899876616
27.7911526196
27.9907074751
28.1881194818
28.3829127445
28.5746649997
28.763004169
28.9476057247
29.128189255
29.3045167497
29.4763884931
29.6436429859
29.8061505185
29.9638170361
30.1165713624
30.2643796276
30.4072151941
30.5451021206
30.6780368952
30.806113352
30.929307243
31.0478347511
31.1615387544
31.2709316692
31.3754004392
31.4763041626
31.5596478583
31.6314370864
31.7014878377
31.7707963042
31.8393971249
31.9070965385
31.9739059721
32.0397874997
32.1046962093
32.1685960684
32.2314486481
32.2932154923
32.3538586688
32.4133403049
32.4716227457
32.5286686028
32.5844407659
32.6389024421
32.6920171886
32.7437489451
32.7940620667
32.8429213585
32.89029211
32.9361401295
32.9804317792
33.0231340103
33.0642143969
33.1036411714
33.1413832583
33.1774103091
33.2116927365
33.2442017484
33.2749093814
33.303788534
33.330812998
33.3559574898
33.3791976801
33.4005102228
33.4198727816
33.4372640564
33.4526638072
33.4660528772
33.4774132139
33.4867278891
33.4939811167
33.4991582697
33.5022458947
33.5032317256
33.5021046951
33.4988549443
33.4934738321
33.4859539405
33.4762890816
33.4644742987
33.4505058712
33.4343813124
33.4160993692
33.3956600175
33.3730644665
33.348315154
33.3214155235
33.2923717112
33.261189459
33.2278758635
33.1924395241
33.1548886622
33.1152341417
33.0734877551
33.0296622928
32.9837716388
32.9358307266
32.8858554975
32.8338628857
32.7798707919
32.723898054
32.6659644192
32.6060905152
32.5442978198
32.4806086309
32.4150460352
32.3476338764
32.2783967237
32.2073598393
32.1345491457
32.0599911933
31.9837131274
31.9057426554
31.8261080139
31.7448379356
31.6619616167
31.5775086843
31.491509164
31.4039934484
31.3149922655
31.2245366478
31.1326579025
31.039387581
30.9447574507
30.848799465
30.7515457365
30.6530285084
30.5532801288
30.4523330238
30.3502196732
30.2469725859
30.1426242765
30.037207243
29.9307539452
29.823296784
29.7148680816
29.6055000629
29.4952248371
29.3840743808
29.2720805221
29.159274925
29.0456890752
28.9313542666
28.8163015887
28.7005619151
28.5841658924
28.4671439311
28.3495261945
28.2313425946
28.1126227767
27.9933961284
27.873691743
27.7535384743
27.6329648168
27.5119991249
27.3906691787
27.2690030189
27.1470273218
27.0247705468
26.9022568331
26.7795178378
26.6565697745
26.5334579727
26.4101704188
26.2868055464
26.16324659
26.0397938728
25.915936254
25.7927387572
25.6682092732
25.4387749639
25.0766563319
24.7142618256
24.3358825693
23.9478880566
23.5481111441
23.13747681
22.7158960815
22.2836658625
21.8409900453
21.3881497099
20.92543349
20.4531718783
19.971706128
19.4814214915
18.9826939921
18.4759637954
17.9616153778
17.4401508373
16.91191629
16.3775040466
15.8371346634
15.2915692219
14.7407335745
14.1857456728
13.6259019143
13.0630975376
12.4953322246
11.9261742935
11.3509925421
10.7768714079
10.1938934265
9.6163585509
9.02383065538
8.44511116305
7.83905644491
7.26310320135
6.63579138543
6.0702951128
5.40745355902
4.86774934965
4.14341545667
3.66013846575
2.82696328411
2.46141113487
1.43185468492
1.30735514663
-0.084101576798
28.1042065491
28.0885087234
28.31340891
28.4357025145
28.6424549765
28.8259065937
29.0452330632
29.2653150938
29.5024724592
29.7461225205
29.9996636811
30.259558219
30.5257961422
30.7967566627
31.0716707213
31.3494624982
31.6292766508
31.9102361427
32.1915441173
32.4724374061
32.7522057636
33.0301851414
33.3057620468
33.5783727987
33.8475036129
34.1126891067
34.373510525
34.6295935766
34.8806064285
35.1262576817
35.3662947976
35.600502163
35.8286999808
36.0507417592
36.2665140129
36.4759319612
36.6789417658
36.8755114307
37.0656408958
37.2493392693
37.4266584262
37.5976297536
37.762368194
37.9208866984
38.0734145194
38.2198360329
38.3606705891
38.4953461187
38.6089112614
38.7010879923
38.7934770488
38.8846702039
38.9746834853
39.0636185138
39.151368551
39.2378965608
39.3231646252
39.4071261237
39.4897377764
39.5709560721
39.6507371884
39.7290375361
39.8058136282
39.8810221315
39.9546199311
40.0265641674
40.0968122807
40.1653220565
40.2320516691
40.2969597269
40.3600053163
40.4211480472
40.4803480972
40.5375662563
40.5927639718
40.645903392
40.6969474121
40.7458597182
40.7926048332
40.8371481619
40.8794560362
40.9194957595
40.9572356514
40.9926450901
41.0256945551
41.0563556675
41.08460123
41.1104052637
41.1337430445
41.1545911368
41.1729274251
41.1887311438
41.2019829043
41.2126647205
41.2207600308
41.2262537191
41.2291321322
41.2293830953
41.2269959254
41.2219614408
41.214271971
41.20392136
41.1909049741
41.1752196953
41.156863936
41.1358376057
41.1121421519
41.0857805311
41.0567569347
41.0250786827
40.9907525892
40.9537874012
40.9141938577
40.8719821904
40.8271657034
40.779758828
40.7297772352
40.6772379199
40.6221591523
40.5645604266
40.5044624341
40.4418870301
40.3768571949
40.3093969953
40.2395315453
40.1672869659
40.0926903435
40.0157696882
39.9365538908
39.8550726794
39.7713565762
39.6854368528
39.5973454862
39.5071151146
39.4147789927
39.3203709469
39.2239253316
39.1254769841
39.025061181
38.9227135945
38.8184702495
38.7123674806
38.6044418906
38.4947303092
38.3832697527
38.270097384
38.1552504737
38.0387663618
37.9206824205
37.8010360177
37.6798644816
37.5572050661
37.4330949178
37.3075710433
37.1806702784
37.0524292577
36.9228843856
36.7920718086
36.6600273882
36.5267866754
36.3923848861
36.2568568775
36.1202371254
35.9825597034
35.8438582623
35.7041660106
35.5635156969
35.4219395922
35.2794694735
35.13613661
34.9919717453
34.8470050913
34.7012663011
34.5547844857
34.4075881484
34.2597052804
34.1111631479
33.9619886752
33.812207682
33.6618463322
33.5109283164
33.3594802717
33.2075212994
33.0550831924
32.9021713392
32.7488402794
32.5950475776
32.4409364361
32.2862891342