/*--------------------------------*- C++ -*----------------------------------*\
  =========                 |
  \\      /  F ield         | OpenFOAM: The Open Source CFD Toolbox
   \\    /   O peration     | Website:  https://openfoam.org
    \\  /    A nd           | Version:  6
     \\/     M anipulation  |
\*---------------------------------------------------------------------------*/
FoamFile
{
    version     2.0;
    format      ascii;
    class       surfaceScalarField;
    location    "0.261799";
    object      phi;
}
// * * * * * * * * * * * * * * * * * * * * * * * * * * * * * * * * * * * * * //

dimensions      [0 3 -1 0 0 0 0];

internalField   nonuniform List<scalar> 
86110
(
51.2184257323
4.8081412882
51.2155645674
4.6665156306
51.2132647165
4.53037876826
51.210645493
4.39905749848
51.2078376953
4.2714362665
51.2049860011
4.14738589077
51.2021829128
4.02685061648
51.1995259933
3.90972053591
51.1971949434
3.79581135137
51.195371756
3.68502219724
51.1941414313
3.57735407437
51.1934338766
3.47286907562
51.1930422647
3.37161348427
51.1927019135
3.27355733048
51.1921898457
3.17857356161
51.1913984885
3.08646389877
51.1903557217
2.99701242375
51.1891918044
2.91003865721
51.1880761907
2.8254276024
51.1871543139
2.74312970346
51.1865070617
2.66313807521
51.1861411329
2.58545754589
51.1860049998
2.51007899127
51.1860178726
2.43696625978
51.1860986745
2.36605611875
51.1861863039
2.29726690632
51.1862481552
2.2305102289
51.1862784772
2.16570107299
51.1862905316
2.10276395667
51.1863067917
2.04163484158
51.1863503479
1.98225987873
51.1864391528
1.92459252181
51.1865833805
1.86859036798
51.1867853123
1.81421258741
51.1870408036
1.76141829982
51.1873414288
1.71016585477
51.1876766206
1.66041279763
51.1880354346
1.61211620634
51.1884077689
1.56523319657
51.1887851057
1.51972136781
51.1891607975
1.47553921685
51.1895301442
1.43264632169
51.1898901659
1.39100359766
51.1902394831
1.35057318259
51.1905778138
1.31131874619
51.1909060264
1.2732049737
51.1912252387
1.23619837259
51.191537707
1.20026565911
51.1918073224
0.86864958604
51.1920773473
0.868647877559
51.1923486092
0.868645294746
51.1926220992
0.86864174909
51.1928987722
0.868637277884
51.1931794807
0.868631975609
51.1934649806
0.868625942453
51.1937559147
0.868619291536
51.1940528205
0.868612128938
51.1943561315
0.868604558589
51.1946661645
0.868596698135
51.1949830999
0.868588684138
51.1953069622
0.868580673151
51.1956375982
0.868572843207
51.1959746672
0.868565382298
51.1963176622
0.868558457243
51.1966659667
0.868552177844
51.1970189329
0.868546575988
51.1973759546
0.868541610468
51.1977365146
0.868537192467
51.1981002046
0.868533213762
51.1984667252
0.868529565721
51.1988358783
0.86852614745
51.1992075622
0.868522863005
51.1995817747
0.868519613036
51.1999586222
0.868516289621
51.2003383271
0.868512777024
51.2007212279
0.868508959324
51.2011077663
0.868504733785
51.2014984624
0.868500022534
51.2018938832
0.868494778834
51.2022946093
0.868488989329
51.2027012047
0.868482671248
51.2031141917
0.868475866361
51.2035340323
0.868468635354
51.2039611158
0.868461051341
51.204395753
0.86845319317
51.2048381743
0.868445141144
51.2052885333
0.868436973041
51.2057469116
0.868428760427
51.206213327
0.868420567796
51.2066877412
0.868412451429
51.2071700676
0.86840445982
51.2076601783
0.868396634455
51.208157911
0.868389010179
51.2086630757
0.868381614645
51.2091754635
0.868374467073
51.2096948564
0.868367576669
51.2102210387
0.868360941531
51.2107538072
0.868354549084
51.2112929799
0.868348378277
51.2118384007
0.868342403539
51.2123899381
0.868336600066
51.21294748
0.868330948992
51.2135109234
0.868325440954
51.2140801646
0.868320076987
51.2146550907
0.868314866101
51.2152355772
0.868309820238
51.2158214904
0.86830494832
51.2164126954
0.868300252074
51.2170090648
0.868295723541
51.2176104879
0.868291346778
51.2182168677
0.868287106964
51.2188281233
0.868282988193
51.2194441826
0.868278982191
51.2200649653
0.868275097276
51.2206903717
0.868271352285
51.2213202755
0.868267773898
51.2219545216
0.868264391097
51.2225929294
0.868261228879
51.2232353004
0.868258305345
51.2238814258
0.868255630736
51.2245310933
0.868253208131
51.2251840912
0.868251036874
51.22584021
0.868249115067
51.2264992421
0.8682474402
51.2271609818
0.868246010027
51.2278252265
0.868244822009
51.2284917769
0.868243872119
51.2291604379
0.868243155776
51.2298310192
0.868242668708
51.2305033332
0.868242407293
51.2311771938
0.868242370013
51.2318524146
0.868242557275
51.2325288081
0.868242969487
51.2332061873
0.86824360598
51.2338843688
0.868244463202
51.2345631768
0.868245532941
51.2352424472
0.868246803402
51.2359220291
0.868248261002
51.2366017847
0.868249892454
51.2372815849
0.86825168858
51.2379613033
0.868253646598
51.2386408095
0.868255770131
51.2393199629
0.868258068913
51.2399986095
0.868260556266
51.2406765819
0.868263245115
51.2413537019
0.868266145728
51.2420297859
0.868269263691
51.24270465
0.8682725985
51.2433781153
0.868276144945
51.244050011
0.868279894645
51.2447201764
0.868283837168
51.2453884602
0.868287962499
51.2460547195
0.868292262269
51.2467188175
0.86829672961
51.2473806219
0.868301359953
51.2480400026
0.868306150652
51.2486968313
0.868311099639
51.2493509803
0.868316205532
51.2500023233
0.868321467094
51.2506507356
0.868326882111
51.2512960946
0.86833244799
51.2519382807
0.868338161784
51.2525771774
0.868344019595
51.2532126718
0.868350017524
51.2538446548
0.868356151821
51.2544730208
0.868362418189
51.255097668
0.86836881248
51.2557184989
0.868375330536
51.2563354203
0.868381967232
51.2569483443
0.868388717025
51.257557189
0.868395573777
51.2581618797
0.868402529885
51.2587623497
0.868409576966
51.2593585413
0.868416705851
51.2599504071
0.868423905904
51.2605379104
0.868431165988
51.261121026
0.868438474756
51.2616997398
0.8684458205
51.2622740484
0.868453192266
51.2628439577
0.868460580797
51.2634094821
0.868467977316
51.2639706416
0.86847537578
51.2645274633
0.868482769416
51.2650799768
0.868490154858
51.265628224
0.868497520597
51.2661722444
0.868504867487
51.266712111
0.868512165077
51.2672478694
0.868519433937
51.2677796681
0.868526584482
51.2683075079
0.868533738981
51.2688317731
0.868540563446
51.2693519804
0.868547807605
51.2705326227
2.40033250884
51.27170986
2.47224861407
51.2728859887
2.54631871674
51.2740516814
2.62261671045
51.2752008563
2.7012068882
51.2763253227
2.78215951016
51.2774182001
2.86554401991
51.2784726297
2.95143305006
51.2794816921
3.0399015795
51.2804383304
3.13102687271
51.2813357349
3.224888134
51.2821675306
3.32156675079
51.2829279628
3.42114637938
51.2836120844
3.52371300702
51.2842157876
3.62935518324
51.2847354283
3.73816451691
51.2851670837
3.85023609962
51.2855059505
3.96566847349
51.2857466621
4.08456276956
51.2858846889
4.20702174135
51.2859179463
4.33314960477
51.2858472036
4.46305339398
51.2856750135
4.59684443857
51.285404106
4.73463915676
51.2850368556
4.87655783038
51.2845758196
5.02272402948
51.2840249503
5.17326345498
51.2833897815
5.32830597109
51.2826774761
5.48798450569
51.2818955938
5.65243849506
51.281052578
5.82180922339
51.280156438
5.99624632604
51.2792169817
6.17589759194
51.2782429519
6.36092419997
51.2772465617
6.55147877448
51.2762363145
6.7477387158
51.2752275122
6.9498574291
51.2742255245
7.15803695758
51.2732518636
7.37242015866
51.2723028726
7.59325169568
51.2714174963
7.82063595426
51.2705661379
8.05490487316
51.2698435196
8.29604847731
51.2691333093
8.54461453737
51.2687360006
8.80023169039
51.2682047716
9.0641051156
51.268644101
9.3346074647
9.61479898892
48.986249657
4.80500248512
48.9874794514
4.66528583629
48.9878720617
4.52998615801
48.9880997974
4.39882976274
48.9880414347
4.27149462927
48.987647242
4.14778008354
48.9868950062
4.02760285231
48.9857870871
3.91082845504
48.9843228131
3.79727562536
48.9825434492
3.6868015612
48.9805424173
3.57935510631
48.9784423058
3.4749691872
48.9763522734
3.3737035167
48.9743351658
3.27557443816
48.9723994964
3.18050923098
48.9705163035
3.08834709171
48.9686477845
2.99888094288
48.9667718529
2.91191458883
48.9648925703
2.82730688504
48.9630356423
2.74498663158
48.9612351174
2.66493860016
48.959519489
2.58717317433
48.9579031939
2.51169528643
48.9563854466
2.43848400705
48.9549548276
2.36748673782
48.9535963334
2.29862540062
48.9522977354
2.23180882697
48.9510533404
2.16694546808
48.9498647251
2.10395257197
48.9487391105
2.04276045623
48.9476865223
1.98331246705
48.9467168385
1.92556220567
48.9458374801
1.86946972642
48.9450520749
1.81499799266
48.9443600901
1.76211028463
48.9437572132
1.71076873172
48.9432362057
1.66093380523
48.9427879437
1.6125644684
48.9424024705
1.56561866977
48.942069882
1.52005395639
48.9417810549
1.47582804405
48.9415280718
1.43289930485
48.9413045581
1.39122711136
48.9411056219
1.35077211882
48.9409279863
1.31149638183
48.9407694486
1.27336351149
48.9406291893
1.23633863192
48.940506563
1.20038828546
48.940393679
0.868762470072
48.9402911064
0.86875045027
48.9401997917
0.868736609485
48.9401204938
0.868721046947
48.9400539617
0.868703810081
48.9400009382
0.868684999165
48.9399620629
0.868664817784
48.9399378305
0.868643523908
48.9399285446
0.86862141493
48.939934282
0.868598821203
48.9399548794
0.868576100747
48.9399899375
0.868553626057
48.9400388437
0.868531767011
48.9401008064
0.868510880583
48.9401748886
0.868491300158
48.9402600323
0.868473313557
48.9403550779
0.868457132229
48.9404587913
0.868442862637
48.9405699084
0.86843049344
48.940687197
0.868419903886
48.9408095261
0.8684108847
48.9409359295
0.86840316239
48.9410656543
0.868396422608
48.9411981902
0.868390327219
48.9413332781
0.86838452517
48.9414709054
0.868378662288
48.9416112908
0.868372391719
48.9417548627
0.868365387429
48.9419022345
0.868357362068
48.9420541736
0.868348083379
48.9422115671
0.868337385441
48.9423753814
0.868325174997
48.942546622
0.868311430699
48.942726292
0.868296196468
48.9429153546
0.868279572725
48.9431147014
0.868261704605
48.9433251262
0.868242768391
48.943547308
0.868222959398
48.9437818012
0.86820247987
48.9440290342
0.868181527497
48.9442893144
0.868160287603
48.9445628395
0.868138926322
48.9448497125
0.868117586922
48.9451499587
0.868096388235
48.9454635445
0.868075424469
48.9457903935
0.868054765639
48.9461304022
0.86803445843
48.9464834516
0.868014527219
48.9468494177
0.867994975539
48.9472281782
0.867975788571
48.9476196197
0.86795693684
48.9480236419
0.867938381321
48.948440162
0.867920079997
48.9488691162
0.867901994862
48.9493104592
0.867884097976
48.949764161
0.867866375201
48.9502302009
0.867848826242
48.9507085603
0.867831460917
48.9511992158
0.867814292829
48.9517021347
0.867797333131
48.9522172736
0.867780584724
48.9527445804
0.867764040997
48.9532839981
0.86774769017
48.95383547
0.867731516326
48.9543989444
0.86771550779
48.9549743762
0.867699665565
48.9555617253
0.867684003193
48.9561609526
0.867668546633
48.9567720136
0.867653330116
48.9573948529
0.867638389571
48.9580294003
0.867623757954
48.9586755693
0.867609461841
48.9593332576
0.867595519848
48.9600023499
0.867581944615
48.9606827201
0.867568744853
48.961374234
0.867555926301
48.9620767508
0.867543493226
48.9627901245
0.867531448376
48.9635142047
0.867519792001
48.9642488376
0.867508522819
48.9649938674
0.867497638958
48.9657491361
0.86748713863
48.966514484
0.867477022183
48.9672897487
0.867467292572
48.9680747644
0.867457953807
48.9688693607
0.867449009687
48.9696733628
0.867440461174
48.9704865923
0.867432303412
48.9713088701
0.86742452569
48.9721400183
0.867417112737
48.9729798635
0.867410047294
48.9738282368
0.867403315334
48.9746849731
0.867396910302
48.9755499083
0.867390834955
48.9764228751
0.867385102162
48.977303699
0.867379732375
48.9781921956
0.867374748571
48.9790881691
0.867370172243
48.9799914133
0.867366019506
48.9809017136
0.867362298226
48.9818188499
0.86735900868
48.9827425994
0.867356145122
48.983672739
0.867353697561
48.9846090464
0.867351655176
48.9855513002
0.86735000852
48.9864992796
0.867348750161
48.9874527636
0.867347875967
48.9884115294
0.867347384908
48.9893753514
0.867347277639
48.9903440006
0.86734755637
48.9913172437
0.867348223991
48.9922948432
0.867349282643
48.9932765572
0.867350734056
48.9942621395
0.867352579442
48.9952513403
0.867354818865
48.9962439056
0.867357452243
48.9972395778
0.867360479601
48.9982380956
0.867363900454
48.9992391935
0.867367714528
49.0002426025
0.867371921575
49.0012480495
0.867376520322
49.0022552576
0.867381508888
49.0032639469
0.867386884455
49.0042738346
0.867392642235
49.0052846356
0.867398775981
49.0062960637
0.86740527783
49.007307832
0.867412137557
49.0083196544
0.867419343597
49.0093312455
0.867426883726
49.0103423206
0.867434745391
49.0113525949
0.867442917967
49.0123617816
0.867451394142
49.0133695883
0.867460170598
49.0143757154
0.867469248732
49.0153798498
0.867478635048
49.0163816676
0.867488337042
49.0173808229
0.867498365313
49.0183769662
0.867508724232
49.0193697082
0.86751942303
49.0203586934
0.867530448723
49.0213434581
0.867541819845
49.0223237186
0.867553478477
49.0232987603
0.867565521756
49.0242688855
0.8675776824
49.0271125423
2.39748885208
49.0300016965
2.46935945994
49.0329237504
2.54339666281
49.0358784035
2.61966205743
49.0388587104
2.69822658127
49.0418581773
2.77916004331
49.0448676856
2.86253451159
49.0478770507
2.948423685
49.0508748914
3.03690373879
49.0538487983
3.12805296586
49.0567852237
3.22195170862
49.0596695073
3.31868246719
49.0624859014
3.41832998532
49.0652177616
3.52098114681
49.0678480028
3.62672494209
49.07035968
3.73565283976
49.0727362472
3.84785953236
49.0749612286
3.96344349213
49.0770176662
4.08250633195
49.0788882339
4.20515117366
49.0805563675
4.33148147123
49.0820077984
4.46160196308
49.0832312834
4.59562095356
49.0842183502
4.73365208996
49.0849625838
4.8758135968
49.0854597191
5.02222689419
49.0857081728
5.17301500123
49.0857100793
5.32830406454
49.0854709582
5.48822362686
49.0849995156
5.65290993763
49.0843058564
5.82250288258
49.0834024005
5.99714978193
49.0823027395
6.17699725293
49.0810250062
6.36220193327
49.0795885688
6.55291521186
49.0780184806
6.74930880408
49.0763371652
6.95153874448
49.0745735743
7.15980054841
49.0727482223
7.3742455107
49.0708928871
7.59510703084
49.0690217643
7.82250707714
49.0671710243
8.05675561308
49.0653397577
8.29787974392
49.0635740203
8.54638027483
49.061826188
8.80197952269
49.0601860781
9.06574522544
49.0583708272
9.33642271561
9.61643702989
46.8377868231
4.80805469557
46.8357024029
4.66737025655
46.8339021122
4.53178644885
46.8320505309
4.40068134403
46.8302286379
4.2733165223
46.8284746209
4.14953410067
46.8268003944
4.02927707882
46.8251854603
3.91244338917
46.8236027685
3.79885831723
46.8220216272
3.68838270261
46.8204224824
3.58095425112
46.8188061369
3.47658553278
46.8171916994
3.3753179543
46.8156027171
3.27716342052
46.8140510173
3.18206093085
46.8125277283
3.08987038076
46.8110058618
3.00040280951
46.8094518993
2.9134685514
46.8078396818
2.82891910259
46.8061600065
2.74666630692
46.8044226292
2.66667597753
46.8026513716
2.5889444321
46.8008756706
2.5134709875
46.7991224086
2.44023726913
46.7974106835
2.36919846301
46.7957503569
2.30028572725
46.7941436817
2.23341550225
46.7925885339
2.16850061596
46.791081763
2.10545934305
46.7896216432
2.04422057612
46.7882090255
1.98472508476
46.7868472967
1.92692393458
46.7855415407
1.8707754825
46.7842973717
1.81624216173
46.7831198252
1.76328783127
46.7820125509
1.71187600608
46.7809773959
1.66196896032
46.7800143595
1.61352750487
46.7791218204
1.56651120901
46.7782969384
1.52087883846
46.7775360976
1.4765888849
46.7768353535
1.433600049
46.7761907562
1.39187170874
46.7755986514
1.35136422378
46.7750557421
1.31203929114
46.7745592905
1.27385996317
46.7741068301
1.23679109245
46.7736966344
1.20079848124
46.7734452989
0.869013805597
46.7732086502
0.868987099042
46.7729870079
0.868958251863
46.7727809556
0.868927099275
46.7725910763
0.868893689396
46.7724178984
0.868858177161
46.7722619165
0.868820799757
46.7721235598
0.86878188062
46.7720031713
0.868741803446
46.7719009872
0.868701005424
46.771817114
0.868659973939
46.771751511
0.868619229119
46.7717039782
0.868579299893
46.7716741559
0.868540702905
46.7716615384
0.868503917777
46.7716654994
0.868469352538
46.7716853254
0.868437306305
46.7717202474
0.868407940677
46.7717694711
0.868381269862
46.771832204
0.868357171038
46.7719076839
0.868335404793
46.7719952086
0.868315637829
46.7720941655
0.868297465767
46.7722040604
0.868280432368
46.7723245398
0.868264045764
46.7724554061
0.868247796102
46.7725966229
0.868231174952
46.7727483129
0.86821369742
46.7729107477
0.86819492736
46.7730843316
0.868174499578
46.7732695816
0.86815213545
46.7734671042
0.868127652421
46.7736775697
0.868100965238
46.7739016862
0.868072080112
46.7741401735
0.868041085472
46.7743937396
0.868008138488
46.7746630594
0.867973448682
46.7749487567
0.867937262125
46.7752513916
0.867899845033
46.7755714515
0.867861467687
46.7759093471
0.867822391999
46.7762654132
0.867782860267
46.7766399126
0.867743087563
46.777033044
0.867703256965
46.7774449513
0.867663517186
46.777875735
0.867623982025
46.778325462
0.867584731434
46.7787941755
0.867545813745
46.7792819022
0.867507248893
46.779788658
0.86746903279
46.7803144524
0.867431142533
46.7808592913
0.867393542462
46.7814231802
0.867356191152
46.7820061265
0.867319048643
46.7826081415
0.867282082973
46.7832292418
0.86724527496
46.7838694482
0.867208619911
46.7845287833
0.867172125859
46.7852072672
0.867135808903
46.7859049127
0.867099687741
46.7866217202
0.867063777231
46.787357677
0.86702808565
46.7881127542
0.866992614381
46.7888869108
0.866957359754
46.7896801
0.866922318545
46.7904922722
0.866887493413
46.7913233792
0.866852896225
46.7921733755
0.866818550376
46.7930422163
0.866784489373
46.7939298536
0.866750752291
46.7948362319
0.866717379749
46.7957612841
0.866684409698
46.7967049298
0.866651874129
46.7976670753
0.866619799193
46.7986476142
0.866588205977
46.7996464295
0.866557111051
46.8006633945
0.866526528254
46.8016983737
0.866496469167
46.8027512234
0.866466942423
46.8038217917
0.866437954557
46.8049099201
0.86640951055
46.8060154446
0.866381614177
46.8071381967
0.866354270131
46.8082780042
0.866327485109
46.8094346908
0.866301267258
46.8106080746
0.866275625871
46.8117979666
0.866250569261
46.8130041685
0.866226101527
46.8142264727
0.866202221497
46.8154646629
0.866178922588
46.8167185163
0.866156194009
46.8179878064
0.866134025211
46.8192723065
0.866112410212
46.8205717912
0.866091350377
46.8218860367
0.866070856683
46.8232148204
0.866050948697
46.8245579183
0.866031650645
46.8259151028
0.866012987859
46.8272861397
0.865994982655
46.8286707872
0.865977650738
46.830068795
0.865961000892
46.8314799045
0.865945035639
46.8329038498
0.865929752343
46.8343403587
0.865915146283
46.8357891544
0.865901212815
46.8372499564
0.865887948227
46.838722481
0.865875351365
46.8402064421
0.865863423843
46.8417015508
0.865852168993
46.8432075152
0.865841591988
46.8447240401
0.865831699114
46.8462508265
0.865822496319
46.8477875711
0.865813989428
46.8493339668
0.865806183836
46.850889702
0.865799083678
46.8524544616
0.865792692666
46.854027927
0.865787014242
46.8556097765
0.865782050969
46.8571996857
0.865777805303
46.8587973279
0.865774279495
46.8604023736
0.865771474637
46.8620144914
0.865769391124
46.8636333475
0.86576802833
46.8652586063
0.865767383509
46.8668899301
0.865767452174
46.8685269802
0.865768227762
46.8701694171
0.865769700681
46.8718169015
0.865771859158
46.8734690955
0.865774689786
46.875125663
0.865778177946
46.8767862709
0.865782310104
46.8784505892
0.86578707583
46.8801182915
0.865792468345
46.8817890535
0.865798486775
46.8834625538
0.865805134747
46.8851384702
0.865812420595
46.8868164841
0.865820351455
46.8884962689
0.865828939448
46.8901775095
0.86583818248
46.8918598625
0.865848095702
46.8935430297
0.865858652654
46.8952266153
0.86586989291
46.8969103866
0.865881750469
46.898593788
0.865894281072
46.9030793135
2.39300332662
46.9076770143
2.4647617591
46.912385832
2.53868784522
46.9171938932
2.61485399623
46.9220912201
2.69332925437
46.9270647227
2.77418654081
46.9321000496
2.85749918462
46.937180532
2.94334320271
46.9422873134
3.03179695742
46.9473992926
3.12294098668
46.952493246
3.21685775519
46.9575438738
3.31363183938
46.962523895
3.41334996414
46.9674042238
3.51610081809
46.9721542993
3.62197486664
46.9767425501
3.73106458895
46.9811368138
3.84346526869
46.9853044875
3.95927581844
46.989212486
4.07859833345
46.9928275001
4.20153615951
46.9961170046
4.32819196679
46.9990508459
4.45866812174
47.0016026458
4.59306915372
47.003750428
4.73150430773
47.0054766183
4.87408740656
47.0067681449
5.0209353675
47.0076170988
5.17216604741
47.0080216644
5.32789949886
47.0079864797
5.48825881166
47.0075219098
5.65337450749
47.0066428448
5.82338194758
47.0053680034
5.99842462333
47.0037208342
6.17864442211
47.0017303762
6.36419239121
46.999432543
6.55521304505
46.9968677613
6.75187358581
46.9940819022
6.95432460362
46.9911199943
7.16276245621
46.9880338641
7.37733164093
46.9848668454
7.59827404954
46.9816798524
7.82569407011
46.9785063405
8.05992912502
46.9754298065
8.30095627792
46.972457861
8.5493522203
46.9697251143
8.80471226935
46.9672061887
9.06826415105
46.9650555863
9.33857331804
9.61812541866
44.7943946752
4.80599142239
44.7953406397
4.66642429212
44.7957567372
4.53137035147
44.7959526745
4.40048540681
44.7958917018
4.27337749507
44.7955923041
4.14983349837
44.7950671259
4.02980225718
44.7943265624
3.91318395271
44.7933651611
3.79981971858
44.7921868711
3.68956099274
44.7908189036
3.58232221866
44.7893156621
3.47808877439
44.78774718
3.37688643647
44.7861791059
3.27873149468
44.7846528829
3.18358715403
44.7831753128
3.09134795096
44.781721407
3.00185671537
44.7802482073
2.91494175119
44.7787128538
2.83045445624
44.7770875699
2.74829159083
44.7753668381
2.66839670946
44.7735659837
2.59074528669
44.7717136606
2.51532331062
44.7698421932
2.44210873669
44.7679793434
2.37106131294
44.7661435707
2.30212150008
44.7643431282
2.23521594478
44.7625780791
2.1702656652
44.7608437687
2.10719365355
44.7591343765
2.04592996842
44.757445623
1.98641383842
44.7557762522
1.92859330551
44.7541283531
1.8724233817
44.7525068357
1.8178636793
44.7509184565
1.76487621053
44.7493707351
1.71342372765
44.747871
1.66346869546
44.7464256778
1.61497282727
44.745039864
1.56789702288
44.7437171277
1.52220157488
44.7424595261
1.47784648664
44.7412677129
1.43479186224
44.7401411804
1.39299824141
44.7390784393
1.35242696494
44.7380773603
1.31304037022
44.7371352402
1.27480208343
44.7362492724
1.23767706037
44.735416242
1.20163151165
44.7348082282
0.869621819513
44.7342155261
0.869579801197
44.7336384196
0.869535358504
44.733076979
0.869488539951
44.7325313034
0.869439365028
44.732001557
0.869387923636
44.7314879354
0.86933442143
44.7309906766
0.869279139474
44.7305100605
0.869222419612
44.7300464057
0.869164660338
44.7296000665
0.869106313244
44.7291714267
0.869047868972
44.7287608893
0.868989837377
44.7283688603
0.868932731953
44.7279957276
0.868877050615
44.7276418368
0.868823243352
44.7273074711
0.868771672087
44.7269928363
0.868722575547
44.7266980541
0.868676052168
44.7264231604
0.868632064793
44.7261681078
0.868590457513
44.7259327696
0.868550976027
44.7257169471
0.868513288358
44.7255203779
0.868477001627
44.7253427484
0.868441675379
44.7251837083
0.868406836269
44.7250428882
0.868371995111
44.7249199179
0.868336667853
44.7248144442
0.868300401117
44.7247261477
0.868262796098
44.7246547564
0.868223526876
44.7246000557
0.868182353215
44.7245618956
0.86813912539
44.7245401938
0.868093781981
44.7245349352
0.868046344095
44.7245461688
0.867996904991
44.7245740013
0.867945616296
44.7246185893
0.867892674208
44.7246801299
0.867838304445
44.7247588508
0.86778274685
44.7248549999
0.867726243018
44.7249688357
0.867669024546
44.7251006188
0.867611304472
44.7252506046
0.867553271256
44.7254190369
0.867495084995
44.7256061436
0.867436875406
44.7258121336
0.867378741479
44.726037195
0.867320752392
44.7262814944
0.867262949577
44.7265451771
0.867205350084
44.7268283688
0.867147950933
44.7271311769
0.867090734466
44.7274536933
0.867033674803
44.7277959972
0.866976744775
44.7281581578
0.86691992246
44.7285402365
0.866863196317
44.7289422889
0.86680656758
44.7293643654
0.866750049368
44.7298065115
0.866693662916
44.7302687665
0.866637432756
44.7307511633
0.866581380486
44.731253729
0.866525521783
44.7317764798
0.866469865354
44.7323194257
0.866414413966
44.732882575
0.866359169303
44.7334659313
0.86630413714
44.7340694965
0.866249331073
44.7346932712
0.866194775715
44.7353372543
0.866140506355
44.7360014413
0.866086565317
44.7366858228
0.866032998346
44.7373903823
0.865979850269
44.7381150953
0.865927161143
44.7388599288
0.865874965708
44.7396248412
0.865823293665
44.7404097823
0.865772170022
44.7412146937
0.865721616943
44.7420395085
0.865671654348
44.7428841518
0.865622299245
44.74374854
0.865573566382
44.7446325821
0.865525468463
44.7455361802
0.865478016217
44.7464592299
0.865431220485
44.7474016214
0.865385093646
44.748363239
0.865339649709
44.7493439601
0.865294904771
44.750343654
0.865250875458
44.7513621798
0.865207575773
44.7523993858
0.865165015546
44.7534551092
0.865123199266
44.7545291772
0.865082126063
44.7556214094
0.865041793068
44.7567316204
0.865002199206
44.7578596227
0.864963348133
44.7590052281
0.86492525133
44.7601682485
0.864887928336
44.7613484951
0.86485140413
44.7625457764
0.8648157066
44.7637598961
0.864780862955
44.7649906508
0.864746896093
44.766237828
0.864713823796
44.767501205
0.86468165864
44.7687805491
0.864650408281
44.7700756176
0.864620077835
44.7713861589
0.864590671593
44.7727119135
0.864562193686
44.7740526151
0.864534649778
44.7754079915
0.864508047526
44.7767777646
0.864482395871
44.7781616511
0.864457705519
44.7795593618
0.864433988484
44.7809706014
0.864411256786
44.7823950682
0.86438952268
44.7838324538
0.864368798225
44.7852824433
0.864349094278
44.7867447148
0.864330421137
44.7882189405
0.864312788575
44.7897047864
0.864296205177
44.7912019125
0.864280679174
44.7927099736
0.864266218467
44.7942286185
0.864252829824
44.7957574901
0.864240519494
44.7972962255
0.864229292989
44.798844455
0.864219154049
44.8004018022
0.864210105027
44.8019678835
0.864202146488
44.8035423081
0.864195276117
44.805124678
0.864189489291
44.8067145885
0.864184779294
44.8083116293
0.864181137213
44.8099153855
0.864178553903
44.81152544
0.864177021333
44.8131413749
0.864176533509
44.8147627739
0.864177087772
44.8163892228
0.86417868593
44.8180203122
0.864181331196
44.8196556327
0.864185031007
44.8212947831
0.864189789042
44.8229373494
0.86419561618
44.8245829398
0.864202505347
44.8262311077
0.864210484794
44.8278814978
0.864219502865
44.8295335366
0.864229711662
44.8311871296
0.864240688057
44.8358920551
2.38829840124
44.8407410951
2.45991271913
44.8457231647
2.53370577566
44.8508336737
2.60974348721
44.856062944
2.68809998415
44.861400427
2.76884905788
44.8668326163
2.85206699537
44.8723437585
2.93783206057
44.8779155448
3.02622517108
44.883527083
3.11732944857
44.8891547388
3.2112300994
44.8947721075
3.30801447069
44.9003500454
3.40777202626
44.905856828
3.51059403558
44.9112584567
3.61657323787
44.9165191068
3.72580393892
44.9216015989
3.83838277665
44.9264677533
3.954409664
44.9310786112
4.07398747553
44.9353947849
4.19721998585
44.9393772807
4.324209471
44.9429888875
4.455056515
44.9461957087
4.58986233253
44.948968334
4.72873168244
44.9512823894
4.8717733511
44.9531189244
5.01909883251
44.9544649293
5.17082004253
44.9553142537
5.32705017445
44.9556679536
5.48790511176
44.9555341426
5.65350831847
44.9549266554
5.82398943483
44.9538648848
5.99948639394
44.9523733388
6.18013596803
44.9504836297
6.36608210031
44.9482329058
6.55746376896
44.9456653948
6.75444109684
44.9428265346
6.95716346374
44.9397674508
7.16582154005
44.9365341578
7.3805649339
44.9331818691
7.60162633831
44.9297492917
7.82912664741
44.9262983771
8.06338003962
44.9228420078
8.30441264727
44.9194682919
8.55272593615
44.916101029
8.80807953225
44.9129551071
9.07141007301
44.9095889161
9.34193950902
9.62083167916
42.8314141492
4.80793836271
42.8298410354
4.66799740601
42.8283820596
4.53282932733
42.826923022
4.40194444449
42.8255237545
4.27477676269
42.8241910211
4.15116623185
42.8229262208
4.03106705754
42.8217191467
3.91439102692
42.8205547211
3.80098414427
42.8194106561
3.69070505785
42.8182653662
3.58346750863
42.8171057531
3.47924838759
42.8159308926
3.37806129709
42.8147489077
3.27991347968
42.8135694753
3.18476658659
42.8123962731
3.0925211533
42.8112232674
3.00302972118
42.8100362168
2.91612880185
42.8088180371
2.83167263608
42.8075551178
2.74955451025
42.8062418109
2.66971001657
42.804881635
2.59210546266
42.8034853566
2.51671958916
42.8020672393
2.44352685414
42.8006410877
2.37248746467
42.7992173543
2.3035452336
42.7978018891
2.23663141018
42.7963962434
2.17167131107
42.7949990148
2.10859088224
42.79360759
2.04732139344
42.7922197412
1.98780168732
42.7908347489
1.92997829795
42.7894539397
1.87380419106
42.7880807001
1.81923691907
42.786720111
1.76623679979
42.7853783745
1.71476546425
42.7840621767
1.66478489347
42.7827780984
1.61625690566
42.7815321294
1.56914299211
42.7803293285
1.52340437592
42.7791736093
1.47900220596
42.7780676812
1.43589779051
42.7770130528
1.39405286992
42.7760101931
1.35342982477
42.7750586226
1.31399194086
42.774157245
1.27570346112
42.773304326
1.23852997948
42.7724981015
1.20243773631
42.7719462891
0.870173632017
42.7714053133
0.870120777167
42.7708751321
0.870065539736
42.770355925
0.870007747163
42.7698479159
0.869947374195
42.7693513708
0.869884468881
42.7688666494
0.869819142905
42.7683942091
0.869751579838
42.7679346103
0.869682018574
42.7674885157
0.869610754985
42.767056682
0.869538147066
42.766639945
0.86946460604
42.7662392022
0.869390580326
42.7658553923
0.869316541961
42.7654894744
0.869242968531
42.7651424051
0.869170312809
42.7648151116
0.869098965641
42.7645084638
0.86902922345
42.7642232445
0.868961271536
42.7639601234
0.868895186073
42.7637196355
0.868830945482
42.763502168
0.868768443648
42.7633079535
0.868707502957
42.7631370715
0.8686478837
42.7629894561
0.868589290877
42.7628649091
0.868531383362
42.7627631179
0.868473786406