/*--------------------------------*- C++ -*----------------------------------*\
  =========                 |
  \\      /  F ield         | OpenFOAM: The Open Source CFD Toolbox
   \\    /   O peration     | Website:  https://openfoam.org
    \\  /    A nd           | Version:  6
     \\/     M anipulation  |
\*---------------------------------------------------------------------------*/
FoamFile
{
    version     2.0;
    format      ascii;
    class       surfaceScalarField;
    location    "0.261799";
    object      phiHbyA;
}
// * * * * * * * * * * * * * * * * * * * * * * * * * * * * * * * * * * * * * //

dimensions      [0 3 -1 0 0 0 0];

internalField   nonuniform List<scalar> 
86110
(
51.2185887298
4.80511226386
51.2156491576
4.66341636144
51.2133715872
4.52734021788
51.2107435859
4.39604087861
51.2079391891
4.26846824656
51.2050907182
4.14446199534
51.2022908475
4.02397655109
51.1996385973
3.90689637091
51.1973112367
3.79303845271
51.1954918591
3.68230097032
51.194264479
3.57468515476
51.1935596315
3.47025298551
51.1931704533
3.36905070915
51.1928326552
3.27104815706
51.1923233284
3.17611801218
51.1915349312
3.0840617031
51.1904951915
2.99466306598
51.1893341783
2.90774146196
51.1882211524
2.82318182979
51.1873014206
2.74093462335
51.1866558229
2.66099300721
51.1862910836
2.58336186613
51.1861557445
2.5080321163
51.1861690992
2.43496762114
51.186250144
2.36410513896
51.1863378273
2.29536298267
51.1863995688
2.22865272642
51.1864296223
2.16388932507
51.1864412431
2.10099727036
51.1864568953
2.03991250457
51.1864996612
1.98058116584
51.186587493
1.92295670012
51.1867305673
1.86699669983
51.1869311792
1.81266033242
51.1871851919
1.75990671504
51.1874842055
1.70869419557
51.1878176513
1.65898031655
51.1881746297
1.61072215503
51.1885450018
1.56387682321
51.1889203492
1.51840192258
51.1892938819
1.47425594484
51.1896611745
1.43139847682
51.1900187875
1.38979042253
51.1903661671
1.34939394469
51.1907015867
1.31017268065
51.1910285277
1.27209138159
51.1913433109
1.23511645782
51.1916552775
1.19921481513
51.191911329
0.867907288982
51.1921844832
0.867904547641
51.1924534713
0.867900815452
51.1927246425
0.8678961519
51.1929996115
0.867890596068
51.1932783298
0.867884224779
51.1935618191
0.867877145049
51.1938507298
0.867869469792
51.1941455629
0.867861304589
51.1944467658
0.867852753892
51.1947546543
0.867843935528
51.1950694078
0.867834986261
51.1953910515
0.8678260629
51.1957194326
0.867817343727
51.196054211
0.867809016984
51.1963948805
0.867801249739
51.1967408254
0.867794152033
51.1970913988
0.867787755982
51.1974459951
0.867782020603
51.1978040976
0.867776857293
51.1981652986
0.867772158042
51.1985292992
0.867767814433
51.1988959016
0.867763725788
51.1992650048
0.867759796378
51.1996366072
0.867755927069
51.2000108154
0.867752010155
51.2003878524
0.867747930115
51.2007680572
0.867743571246
51.2011518719
0.867738831033
51.2015398168
0.867733631829
51.2019324593
0.867727927129
51.2023303805
0.867721703812
51.2027341447
0.867714979351
51.2031442749
0.86770779576
51.2035612335
0.867700213972
51.2039854107
0.867692307349
51.2044171176
0.867684154985
51.2048565858
0.867675837426
51.2053039692
0.867667432688
51.2057593507
0.867659012573
51.2062227487
0.867650641801
51.2066941259
0.867642376871
51.2071733966
0.867634266493
51.2076604339
0.867626352355
51.2081550763
0.867618669496
51.208657135
0.867611245756
51.2091664021
0.86760410053
51.2096826607
0.867597243185
51.2102056958
0.867590671977
51.2107353055
0.867584374469
51.2112713088
0.867578329745
51.2118135504
0.867572512359
51.2123618999
0.867566897617
51.2129162461
0.867561466763
51.213476487
0.867556210529
51.2140425197
0.867551130044
51.2146142325
0.867546234399
51.2151915017
0.86754153561
51.2157741947
0.867537042664
51.2163621775
0.867532757344
51.216955324
0.867528671739
51.2175535239
0.867524769947
51.2181566826
0.867521037188
51.2187647187
0.867517457555
51.2193775595
0.867514022795
51.2199951276
0.867510741257
51.2206173244
0.867507631772
51.2212440238
0.86750472101
51.2218750719
0.867502037941
51.2225102892
0.86749960754
51.2231494779
0.867497447875
51.2237924302
0.867495569146
51.2244389349
0.867493974379
51.2250887813
0.867492662857
51.2257417605
0.867491632609
51.2263976659
0.867490881047
51.2270562928
0.867490405834
51.2277174393
0.867490204335
51.2283809069
0.867490272416
51.2290465015
0.867490605384
51.2297140333
0.867491198843
51.2303833157
0.867492049046
51.2310541633
0.867493154336
51.2317263903
0.86749451498
51.23239981
0.867496131236
51.2330742362
0.86749800228
51.2337494859
0.867500124397
51.2344253841
0.867502489207
51.2351017672
0.867505084744
51.235778485
0.867507897245
51.2364554001
0.867510913241
51.237132384
0.867514123367
51.2378093109
0.867517524653
51.2384860506
0.867521120527
51.239162463
0.86752492053
51.2398383947
0.867528937783
51.2405136787
0.867533185013
51.2411881371
0.86753767228
51.2418615868
0.867542404963
51.2425338441
0.867547382349
51.2432047306
0.867552599017
51.2438740757
0.867558046371
51.2445417189
0.867563713766
51.2452075091
0.867569590975
51.2458713036
0.867575669413
51.2465329659
0.867581942003
51.2471923635
0.867588403966
51.2478493665
0.867595052451
51.2485038466
0.867601885186
51.2491556762
0.867608900595
51.2498047288
0.867616097245
51.2504508797
0.867623472739
51.2510940062
0.867631024304
51.2517339884
0.867638748822
51.2523707096
0.867646642235
51.2530040568
0.867654700494
51.2536339204
0.867662919707
51.2542601945
0.867671295455
51.254882777
0.867679823477
51.2555015696
0.867688499521
51.2561164789
0.867697318386
51.2567274163
0.867706274471
51.2573342993
0.867715361601
51.2579370525
0.867724572162
51.2585356083
0.867733897784
51.2591299083
0.867743329338
51.2597199044
0.867752856259
51.2603055583
0.86776246751
51.2608868449
0.867772151891
51.2614637468
0.867781897849
51.2620362637
0.867791694682
51.2626043921
0.867801533319
51.2631681608
0.867811405427
51.2637275579
0.867821305038
51.2642826678
0.867831226314
51.264833405
0.867841165316
51.2653800293
0.867851113046
51.2659221537
0.867861067061
51.2664606689
0.867871005061
51.266994039
0.867880933781
51.2675254536
0.867890792565
51.2680489617
0.867900650101
51.2685768174
0.867910279873
51.2690802523
0.867920205797
51.2702734919
2.39850349571
51.2714321286
2.47038248196
51.2726127518
2.5444195404
51.273773945
2.62068349207
51.2749222851
2.6992409446
51.2760448443
2.78016142138
51.2771365356
2.86351483288
51.2781898443
2.94937382443
51.2791981189
3.03781356988
51.2801542208
3.12891146494
51.281051391
3.22274687596
51.2818832534
3.31940134506
51.2826440635
3.41895869086
51.2833288857
3.52150506484
51.2839336037
3.62712918407
51.2844545934
3.73592282965
51.2848879023
3.84798126645
51.2852287697
3.96340321603
51.2854717617
4.08228998351
51.2856124387
4.20474450567
51.2856485651
4.33087116567
51.2855810989
4.46077719004
51.2854122758
4.5945740655
51.2851452366
4.7323784301
51.2847817137
4.87431069676
51.2843251329
5.02049471026
51.283778149
5.1710562317
51.2831480752
5.32612552177
51.2824394859
5.48583540768
51.28166351
5.6503259975
51.2808235094
5.81973811153
51.2799345031
5.99422265544
51.2789964811
6.17392614547
51.2780316747
6.35901230951
51.2770336505
6.54963074813
51.2760363585
6.74596409242
51.2750203337
6.94815903111
51.2740379902
7.15642833826
51.2730472961
7.37090059498
51.2721297079
7.59184217313
51.2712106052
7.81932825683
51.2704105921
8.05373359095
51.26962695
8.29499103859
51.2689998659
8.54372925623
51.268500055
8.79947228875
51.2680956845
9.06356593913
51.2683812751
9.33421850238
9.6146830134
48.9860548906
4.80735660592
48.9874880611
4.6677078524
48.9878062007
4.53236665811
48.9880866962
4.401202486
48.9880165243
4.27383595503
48.9876385076
4.15009309735
48.9868874105
4.02988196703
48.9857864863
3.91307276327
48.9843257544
3.79948329696
48.9825513536
3.68897162469
48.9805546455
3.58148656529
48.9784591224
3.47706123423
48.9763732324
3.37575546449
48.9743597801
3.27758579745
48.9724270124
3.18247974131
48.9705459931
3.090276727
48.968679022
3.00076987623
48.9668042284
2.91376313221
48.9649258862
2.82911542428
48.9630698653
2.74675557407
48.9612702926
2.66666834466
48.9595556606
2.58886410244
48.9579403505
2.51334776959
48.9564235015
2.44009842035
48.954993627
2.36906347354
48.9536356819
2.30016487732
48.952337426
2.2333114929
48.9510931789
2.16841179983
48.9499045458
2.10538307025
48.9487787806
2.04415564061
48.9477259405
1.98467287115
48.9467559269
1.92688837327
48.9458761785
1.87076220902
48.9450903288
1.81625734774
48.9443978532
1.76333707515
48.9437944309
1.71196352511
48.9432728369
1.66209717393
48.9428239215
1.61369698789
48.9424377714
1.56672092051
48.9421044089
1.521126519
48.9418148445
1.47687150513
48.9415609363
1.43391424507
48.941336718
1.3922141226
48.9411365916
1.35173177313
48.9409585496
1.31242928055
48.940798148
1.2742702006
48.9406586326
1.23721974189
48.9405316051
1.20124428889
48.9404265662
0.869367263195
48.9403199081
0.869356161891
48.9402284355
0.869343345545
48.9401490512
0.8693287771
48.9400818892
0.86931250417
48.9400283996
0.869294643122
48.9399890254
0.869275391294
48.9399642498
0.869255007061
48.939954407
0.86923378843
48.939959565
0.86921206541
48.9399795614
0.869190195984
48.9400139991
0.869168552584
48.9400622656
0.869147504962
48.94012357
0.869127409972
48.9401969757
0.869108600864
48.9402814251
0.869091365315
48.9403757586
0.869075914624
48.9404787423
0.869062355106
48.9405891124
0.869050675264
48.9407056372
0.869040754191
48.9408271861
0.869032382449
48.9409527935
0.86902528638
48.941081707
0.869019151462
48.9412134166
0.869013639384
48.9413476638
0.869008398912
48.9414844365
0.86900307569
48.9416239539
0.868997322678
48.941766645
0.868990813653
48.9419131238
0.868983261071
48.9420641586
0.868974432479
48.9422206368
0.868964161755
48.9423835259
0.868952355437
48.9425538318
0.86893899197
48.9427325583
0.868924115067
48.9429206692
0.868907824937
48.9431190565
0.868890266509
48.9433285147
0.868871615856
48.943549723
0.86885206809
48.9437832365
0.868831825256
48.9440294838
0.868811084847
48.9442887728
0.868790031997
48.9445613016
0.868768832657
48.9448471733
0.868747629916
48.9451464138
0.868726542437
48.9454589897
0.868705664264
48.945784825
0.868685065259
48.9461238164
0.868664791959
48.9464758453
0.868644868605
48.9468407878
0.868625298599
48.9472185222
0.868606067001
48.9476089352
0.868587144225
48.948011927
0.868568491142
48.9484274152
0.868550065638
48.9488553363
0.868531829618
48.9492956454
0.868513755061
48.9497483131
0.868495827755
48.9502133189
0.868478047336
48.9506906445
0.868460423565
48.9511802672
0.868442969991
48.9516821544
0.868425697725
48.9521962635
0.868408609632
48.9527225428
0.868391699075
48.9532609352
0.868374954257
48.9538113846
0.86835835925
48.9543738394
0.868341902367
48.9549482549
0.868325584604
48.9555345918
0.86830941951
48.9561328112
0.868293433061
48.9567428691
0.868277659507
48.9573647103
0.868262134806
48.9579982648
0.868246891951
48.9586434464
0.868231957563
48.9593001532
0.868217350312
48.9599682701
0.868203082898
48.9606476713
0.868189164103
48.961338223
0.868175599741
48.9620397845
0.868162394162
48.96275221
0.868149550207
48.9634753496
0.868137068222
48.9642090499
0.868124947031
48.964953155
0.868113184869
48.9657075074
0.868101780068
48.9664719477
0.868090733098
48.9672463136
0.868080047041
48.9680304398
0.868069726041
48.9688241559
0.868059774036
48.9696272875
0.868050192131
48.9704396565
0.86804097562
48.9712610839
0.868032113943
48.9720913923
0.868023591988
48.9729304082
0.868015392655
48.9737779633
0.868007502083
48.9746338927
0.867999913882
48.9754980325
0.867992630977
48.9763702156
0.867985666411
48.9772502678
0.867979040808
48.9781380049
0.867972777321
48.9790332314
0.867966897622
48.9799357412
0.867961418003
48.9808453199
0.867956346513
48.9817617477
0.867951683609
48.982684802
0.86794742373
48.9836142599
0.867943557066
48.9845498993
0.867940072977
48.9854914992
0.867936962196
48.9864388391
0.867934217473
48.9873916981
0.867931834848
48.9883498538
0.867929813465
48.9893130809
0.867928154149
48.9902811508
0.867926859274
48.9912538305
0.86792593189
48.9922308829
0.867925374291
48.9932120664
0.867925188355
48.9941971354
0.86792537543
48.9951858404
0.867925935711
48.996177928
0.867926869237
48.9971731412
0.86792817614
48.9981712191
0.867929856032
48.9991718971
0.867931908721
49.0001749067
0.867934334025
49.0011799754
0.867937130721
49.0021868276
0.86794029696
49.0031951839
0.867943829933
49.0042047626
0.86794772484
49.0052152795
0.867951975396
49.0062264497
0.867956573675
49.0072379873
0.867961509358
49.008249608
0.867966770758
49.0092610268
0.867972345484
49.0102719622
0.867978220805
49.011282128
0.867984385826
49.0122912449
0.867990833025
49.0132990109
0.867997558633
49.0143051507
0.86800456393
49.0153093094
0.868011854517
49.0163112509
0.868019438355
49.0173104652
0.868027323706
49.0183069287
0.86803551787
49.0192996253
0.868044022619
49.0202894271
0.868052837497
49.0212734918
0.86806195457
49.0222561632
0.868071364913
49.0232276834
0.86808106817
49.0242052344
0.86809099613
49.0270222179
2.3989844779
49.029923612
2.4708854677
49.0328390119
2.54494948172
49.0357948101
2.62124268806
49.0387736351
2.69983392918
49.0417727558
2.78079368366
49.0447817319
2.86419361286
49.0477908193
2.95010740735
49.0507884715
3.03861108094
49.0537623245
3.12978281905
49.0566988032
3.22370283242
49.0595832507
3.32045349554
49.06239991
3.42011942075
49.0651321401
3.52278735881
49.0677628475
3.62854616437
49.0702750959
3.73748716653
49.0726523213
3.84970491729
49.0748780642
3.96529774355
49.0769353275
4.08436711624
49.0788068266
4.20701600779
49.0804759243
4.33334773381
49.0819284497
4.46346687538
49.083153012
4.59748160544
49.0841413393
4.73550539376
49.084886714
4.87765635276
49.0853852814
5.02405568371
49.085634858
5.1748263449
49.0856384046
5.33009417247
49.0854002634
5.48998876656
49.084930765
5.65464586037
49.0842377354
5.82420566577
49.0833367278
5.99881453847
49.0822369939
6.17862002196
49.0809626045
6.36377683086
49.0795247894
6.55443858449
49.0779596653
6.75077306214
49.0762746292
6.95294128493
49.0745189239
7.16113069746
49.0726857244
7.37550323134
49.070843494
7.59627595541
49.0689573355
7.82359263446
49.0671289635
8.05773100977
49.0652701866
8.29876090708
49.063543358
8.547122073
49.061746154
8.80261546286
49.0601757367
9.06620087399
49.0582709966
9.33675269115
9.61653060661
46.8378764463
4.80629075697
46.8357749061
4.665535037
46.8339807454
4.52997769993
46.8321312329
4.39886584784
46.8303092854
4.27151800672
46.8285598866
4.14774960185
46.8268870896
4.027513231
46.8252760017
3.91070157752
46.8236957467
3.79714117788
46.8221177647
3.68669169856
46.8205212179
3.57929081817
46.8189075776
3.47495071943
46.8172956141
3.37371262016
46.815709067
3.2755881917
46.8141596779
3.18051624512
46.8126386013
3.08835650343
46.8111187988
2.99891986744
46.8095667253
2.91201656339
46.8079561861
2.82749800828
46.8062779598
2.74527598856
46.8045417945
2.66531627464
46.8027715167
2.58761514958
46.800996575
2.51217189951
46.7992438662
2.43896812067
46.7975325015
2.36795897097
46.7958723536
2.29907558178
46.7942656835
2.23223436877
46.7927103737
2.16734813764
46.7912032791
2.10433514354
46.7897426803
2.04312426226
46.7883294348
1.983656249
46.7869669376
1.92588215719
46.7856602805
1.86976033328
46.7844150888
1.81525320183
46.7832364041
1.76232461416
46.7821278914
1.71093807938
46.7810913966
1.66105586598
46.7801269449
1.6126387818
46.7792328929
1.56564639156
46.7784064597
1.52003746142
46.7776439452
1.47577047798
46.7769415697
1.43280414817
46.7762951093
1.39109783991
46.7757014084
1.35061193191
46.7751562961
1.31130809393
46.7746586057
1.27314943022
46.7742030684
1.2361007143
46.7737916056
1.20012789377
46.7735308205
0.86854007235
46.7732961981
0.868512724068
46.7730726278
0.868483142203
46.7728647269
0.868451279825
46.7726734221
0.868417185322
46.7724986092
0.868380999174
46.7723409848
0.868342963934
46.7722009793
0.868303402618
46.7720789087
0.868262698259
46.7719750189
0.868221288238
46.7718894157
0.86817965986
46.7718220567
0.868138333194
46.7717727425
0.868097837158
46.7717411131
0.868058688388
46.7717266625
0.868021366506
46.7717287647
0.867986279555
46.7717467059
0.867953726674
46.7717797172
0.867923869493
46.7718270045
0.867896722259
46.7718877753
0.867872162195
46.7719612677
0.867849949943
46.7720467794
0.867829752264
46.7721436982
0.867811164841
46.7722515302
0.867793731508
46.7723699222
0.867776960467
46.7724986767
0.867760341945
46.7726377579
0.867743367591
46.7727872888
0.867725552599
46.7729475413
0.867706460908
46.7731189202
0.867685727415
46.773301943
0.86766307359
46.7734972167
0.86763831697
46.773705412
0.8676113724
46.7739272376
0.867582246185
46.7741634141
0.867551026853
46.77441465
0.867517871669
46.7746816207
0.867482990253
46.7749649508
0.867446628772
46.775265201
0.867409053536
46.7755828595
0.867370534921
46.7759183377
0.867331334929
46.776271971
0.86729169595
46.7766440231
0.867251833143
46.7770346932
0.867211929674
46.7774441263
0.867172134338
46.7778724235
0.867132561018
46.7783196526
0.867093289746
46.7787858575
0.867054368928
46.7792710656
0.867015818577
46.7797752937
0.866977634674
46.7802985521
0.866939794389
46.7808408475
0.866902262128
46.7814021862
0.866864996529
46.7819825764
0.866827957696
46.7825820304
0.866791113725
46.7832005653
0.866754445493
46.7838382028
0.866717948361
46.7844949665
0.866681630411
46.7851708773
0.866645507792
46.7858659485
0.86660959925
46.7865801823
0.866573919682
46.7873135664
0.866538477412
46.7880660723
0.866503273859
46.7888376596
0.866468305389
46.789628282
0.86643356881
46.790437891
0.866399066803
46.7912664395
0.866364811263
46.7921138826
0.866330825608
46.7929801764
0.866297143363
46.7938652737
0.866263803622
46.7947691196
0.866230847016
46.7956916479
0.866198311508
46.7966327789
0.866166229096
46.7975924195
0.866134625935
46.7985704642
0.866103523114
46.7995667965
0.866072937201
46.8005812905
0.866042882031
46.8016138114
0.866013369178
46.8026642159
0.865984407263
46.8037323531
0.865956002809
46.8048180649
0.865928160782
46.805921188
0.865900884937
46.8070415544
0.865874179947
46.8081789926
0.865848052486
46.8093333267
0.865822510675
46.8105043755
0.865797563779
46.8116919503
0.865773220081
46.8128958536
0.865749483648
46.814115878
0.865726353274
46.8153518079
0.865703822339
46.8166034207
0.865681880016
46.8178704905
0.865660515717
46.819152791
0.865639723419
46.820450097
0.865619504446
46.8217621854
0.865599869732
46.8230888337
0.865580838802
46.8244298183
0.865562435837
46.8257849117
0.865544686124
46.8271538803
0.865527611935
46.8285364824
0.86551122893
46.829932468
0.865495545845
46.8313415786
0.865480565159
46.8327635485
0.865466284193
46.8341981058
0.86545269818
46.8356449738
0.865439802434
46.837103872
0.865427593202
46.8385745169
0.865416069291
46.8400566225
0.865405232278
46.8415498997
0.865395085456
46.843054057
0.865385633971
46.8445687989
0.865376884076
46.8460938263
0.865368841694
46.8476288362
0.865361512629
46.8491735209
0.865354902259
46.8507275691
0.865349014708
46.8522906652
0.86534385368
46.8538624906
0.865339422619
46.8554427233
0.865335724096
46.8570310385
0.86533276058
46.8586271092
0.865330534347
46.8602306056
0.865329046523
46.8618411958
0.865328297547
46.8634585457
0.865328286849
46.8650823188
0.86532901175
46.8667121772
0.865330467847
46.8683477813
0.865332648673
46.8699887911
0.865335544751
46.8716348662
0.865339144438
46.8732856687
0.865343434483
46.87494086
0.865348400423
46.8766001091
0.86535402895
46.8782630794
0.865360309789
46.8799294542
0.865367236523
46.8815988873
0.865374808311
46.8832710969
0.865383029532
46.8849456807
0.865391907958
46.8866224716
0.865401452794
46.8883008463
0.865411673217
46.8899810609
0.865422573988
46.8916616618
0.86543415821
46.8933444968
0.86544642412
46.8950250132
0.865459364821
46.8967110223
0.865473005876
46.8983827547
0.865487218368
46.9028754375
2.39181696806
46.9074607184
2.46355023164
46.9121726917
2.53745425341
46.9169776777
2.61359734676
46.9218744055
2.69205042706
46.9268466002
2.77288580097
46.931881088
2.8561771538
46.9369608025
2.94200049631
46.942067057
3.03043432574
46.9471787074
3.12155926495
46.9522725616
3.21545788754
46.9573233219
3.31221487372
46.9623037128
3.41191705874
46.9671846578
3.51465324352
46.9719355887
3.62051400907
46.9765249502
3.72959195318
46.9809205557
3.84198247981
46.985089834
3.95778462517
46.9889996446
4.07710060729
46.992616747
4.20003389952
46.9959084976
4.32668729418
46.9988448934
4.45716329005
47.0013993104
4.59156653425
47.0035500942
4.73000641427
47.0052791697
4.87259685895
47.0065741408
5.01945495076
47.0074260898
5.17069862303
47.0078345841
5.32644814547
47.0078022545
5.48682661579
47.0073422331
5.65196489197
47.0064654755
5.82199818774
47.0051961239
5.99707059475
47.0035500366
6.17732350563
47.0015666749
6.36290913587
46.9992675524
6.55397075076
46.9967127374
6.75067790945
46.9939212699
6.95317837116
46.9909744752
7.16167325692
46.9878751423
7.37630106472
46.9847323005
7.59731309737
46.9815191211
7.82480180955
46.9783852661
8.05912234811
46.9752610237
8.30022999626
46.9723540476
8.54873185955
46.9695393725
8.80418953765
46.9671243413
9.06787246432
46.9648402784
9.33831575581
9.61802120559
44.7942539423
4.80740240745
44.7953557338
4.66789867405
44.795707423
4.53282713611
44.795949195
4.40195192489
44.795877486
4.27483440338
44.7955942373
4.15128272359
44.7950707246
4.03123833609
44.7943380481
3.91460533931
44.7933807729
3.8012240627
44.7922078463
3.69094680463
44.7908441215
3.58368811701
44.789345148
3.4794336881
44.7877803997
3.37820948347
44.7862157691
3.28003199096
44.7846925844
3.1848645819
44.7832177221
3.09260193923
44.781766203
3.00308701306
44.7802951178
2.91614820301
44.7787616374
2.83163698045
44.7771380153
2.74945016192
44.7754187516
2.66953134596
44.7736191828
2.59185604354
44.771767969
2.51641027474
44.7698974379
2.44317202443
44.7680353552
2.37210106831
44.7662001851
2.30313789297
44.7644001873
2.23620916906
44.7626354326
2.17123593651
44.7609012756
2.10814120698
44.759191905
2.04685505628
44.7575030516
1.98731672815
44.7558334679
1.92947427777
44.7541852535
1.87328272884
44.7525633245
1.81870170378
44.7509744497
1.76569322403
44.7494261492
1.71422004944
44.7479257705
1.66424465228
44.7464797271
1.61572875105
44.7450931554
1.56863325208
44.7437695723
1.52291845014
44.7425111426
1.47854435573
44.7413183507
1.43547106989
44.7401910015
1.39365914412
44.7391270737
1.35306990466
44.7381253927
1.31366571619
44.7371815797
1.27541016079
44.7362958294
1.23826826829
44.7354589902
1.20220612081
44.7348554591
0.870027960931
44.7342599013
0.869986661676
44.7336822843
0.869943020316
44.7331204236
0.869896981792
44.7325739583
0.869848564709
44.7320435091
0.869797871685
44.7315291551
0.869745103509
44.7310311222
0.869690541432
44.7305497105
0.869634527741
44.7300852331
0.869577460622
44.7296380448
0.869519791596
44.7292085307
0.869462011229
44.728797094
0.869404629258
44.7284041412
0.869348159064
44.7280300606
0.869293098444
44.7276751984
0.869239897261
44.7273398381
0.869188917312
44.7270241862
0.869140397191
44.7267283646
0.869094435196
44.7264524099
0.869050994034
44.7261962751
0.869009917655
44.7259598339
0.868970951613
44.7257428882
0.868933763788
44.725545176
0.868897961156
44.7253663841
0.868863103115
44.7252061629
0.868828716173
44.7250641434
0.868794310996
44.7249399558
0.868759403386
44.7248332476
0.868723539818
44.7247437
0.868686321341
44.7246710412
0.868647421889
44.7246150574
0.868606601082
44.7245755992
0.868563709052
44.7245525846
0.868518684239
44.7245459993
0.868471547612
44.7245558926
0.868422392292
44.724582372
0.868371369775
44.7246255946
0.868318676126
44.7246857582
0.868264536937
44.7247630909
0.868209191928
44.7248578412
0.868152882572
44.7249702683
0.868095840352
44.7251006334
0.868038278193
44.7252491924
0.867980384449
44.7254161899
0.867922319111
44.7256018542
0.8678642118
44.725806395
0.867806161411
44.726030001
0.867748237033
44.7262728394
0.867690480016
44.7265350561
0.867632907328
44.7268167774
0.867575515918
44.7271181114
0.867518288058
44.7274391506
0.867461197806
44.727779975
0.867404217935
44.7281406542
0.867347326469
44.7285212503
0.867290511824
44.7289218197
0.867233775188
44.7293424132
0.867177129647
44.7297830771
0.867120596404
44.7302438512
0.867064199968
44.7307247699
0.867007961915
44.7312258605
0.866951897913
44.7317471395
0.866896016659
44.7322886172
0.866840320915
44.7328503017
0.866784812369
44.7334321984
0.866729496803
44.7340343095
0.866674387826
44.7346566365
0.866619510071
44.7352991785
0.866564898851
44.7359619319
0.866510596518
44.7366448877
0.866456648854
44.7373480299
0.866403100723
44.7380713347
0.866349992228
44.7388147696
0.866297358159
44.7395782933
0.866245228271
44.7403618563
0.866193627631
44.7411654006
0.866142578466
44.74198886
0.866092100765
44.7428321597
0.866042211607
44.743695217
0.865992925817
44.7445779411
0.865944256179
44.7454802345
0.865896213506
44.7464019933
0.865848808726
44.7473431083
0.865802054309
44.7483034639
0.865755964357
44.7492829382
0.865710555066
44.7502814006
0.865665843158
44.7512987108
0.865621842742
44.7523347174
0.865578563749
44.7533892579
0.865536010776
44.75446216
0.86549418306
44.7555532434
0.865453077844
44.7566623233
0.865412694163
44.7577892122
0.865373035785
44.7589337224
0.865334114304
44.7600956661
0.865295949374
44.7612748547
0.865258566085
44.762471097
0.865221992442
44.763684197
0.865186255769
44.7649139515
0.865151379074
44.7661601481
0.865117380256
44.7674225647
0.865084272
44.7687009685
0.865052062073
44.7699951171
0.865020755703
44.7713047591
0.864990357286
44.7726296353
0.864960871059
44.7739694795
0.864932302791
44.7753240197
0.864904660235
44.7766929781
0.864877952432
44.7780760714
0.864852190182
44.7794730107
0.864827385587
44.7808835008
0.864803550755
44.7823072402
0.864780698021
44.7837439208
0.864758839521
44.7851932277
0.864737986183
44.7866548393
0.864718148374
44.7881284278
0.864699335924
44.7896136595
0.864681557474
44.7911101947
0.864664821301
44.7926176882
0.864649135347
44.794135789
0.864634506413
44.7956641404
0.86462094077
44.7972023795
0.864608443949
44.798750137
0.864597019694
44.8003070367
0.864586670356
44.8018726953
0.864577396487
44.8034467221
0.864569195744
44.8050287198
0.864562063473
44.8066182834
0.8645559929
44.8082150041
0.864550975065
44.8098184652
0.864547000718
44.8114282543
0.864544061792
44.8130439453
0.864542152077
44.8146651393
0.864541269
44.8162913895
0.864541413824
44.8179223511
0.864542590387
44.8195574909
0.864544804425
44.821196649
0.864548062375
44.8228389449
0.864552369171
44.8244848935
0.864557728611
44.826132288
0.864564147145
44.8277841928
0.864571614635
44.8294334029
0.864580201823
44.8310910651
0.864589649774
44.8357751646
2.38931491707
44.8406321697
2.46095020784
44.8456095868
2.53476138589
44.8507207401
2.61081808205
44.8559489145
2.68919275287
44.8612861133
2.7699597487
44.8667179296
2.85319505318
44.8722289225
2.93897694431
44.8778006708
3.0273862318
44.8834123225
3.11850597104
44.8890402263
3.21242128202
44.8946579843
3.30921942912
44.9002364456
3.40898978797
44.9057438896
3.51182353807
44.9111463069
3.61781332603
44.9164078807
3.72705336247
44.9214914092
3.83964018885
44.9263587335
3.95567361891
44.9309708487
4.0752564287
44.9352884172
4.19849229034
44.9392723542
4.32548338163
44.9428855621
4.45633017964
44.9460939608
4.59113380366
44.9488683821
4.72999889654
44.9511840817
4.87303415806
44.9530226111
5.02035094694
44.9543702223
5.17206111537
44.9552217812
5.32827767779
44.9555768883
5.48911650775
44.9554456678
5.65470079217
44.9548391242
5.82516028543
44.9537805526
6.00063242788
44.9522890403
6.18125438533
44.9504036405
6.36716914418
44.9481512708
6.55851668748
44.9455901187
6.75545520601
44.9427465928
6.95813637825
44.9396976265
7.16674695037
44.9364543086
7.38144145645
44.933118966
7.60244474936
44.9296669013
7.82988769142
44.9262452905
8.06406937003
44.9227526569
8.30503471483
44.9194308296
8.55325806362
44.9159969338
8.80853055581
44.9129457247
9.07174647141
44.909454723
9.34216748392
9.620914575
42.8314559038
4.80686494614
42.8299018344
4.6668647069
42.8284347129
4.53170659304
42.8269874837
4.40080823872
42.8255856082
4.27364377211
42.8242601433
4.15003513297
42.8229964613
4.02994301346
42.8217939943
3.91327574524
42.8206321016
3.79988007848
42.8194915282
3.68961382632
42.8183490428
3.58239061621
42.8171923857
3.47818700774
42.8160201983
3.37701641215
42.8148408105
3.27888587057
42.8136637916
3.18375687523
42.8124928593
3.09152982072
42.8113219476
3.00205713172
42.8101368143
2.91517522177
42.8089203608
2.83073825047
42.8076589723
2.74863943653
42.8063469978
2.66881431509
42.8049879583
2.59122914481
42.8035926251
2.51586262354
42.8021752686
2.44268917141
42.8007497006
2.37166896166
42.7993263804
2.302745777
42.797911164
2.23585083993
42.7965056084
2.17090944359
42.7951083166
2.10784751339
42.7937166808
2.04659630129
42.7923284789
1.98709463456
42.7909429982
1.92928903413
42.7895615715
1.8731324544
42.7881875936
1.81858243831
42.7868261509
1.76559929546
42.7854834566
1.71414465044
42.7841661977
1.66418047827
42.7828809733
1.6156685935
42.781633761
1.56857048283
42.7804296595
1.52284736876
42.7792725309
1.47846039536
42.7781651922
1.43537087507
42.7771089785
1.39354053962
42.7761046824
1.35293178377
42.7751512619
1.31350787123
42.7742486423
1.27523308476
42.7733932678
1.23807295551
42.7725853723
1.20199383663
42.7720267925
0.869860044672
42.7714869766
0.869806800699
42.7709552642
0.869751097106
42.7704345687
0.869692856596
42.7699253409
0.869632053975
42.7694274217
0.869568725675
42.7689413073
0.869502987729
42.7684674558
0.869435023376
42.76800641
0.869365070976
42.7675588395
0.869293426539
42.7671255007
0.869220447974
42.7667072288
0.869146546423
42.7663049216
0.869072170254
42.7659195182
0.868997791449
42.7655519778
0.868923887537
42.7652032571
0.868850911238
42.7648742838
0.868779253351
42.7645659279
0.868709210248
42.7642789725
0.868640967185
42.7640140877
0.868574600289
42.7637718088
0.868510087941
42.7635525233
0.868447323986
42.7633564644
0.86838613077
42.7631837119
0.868326268549
42.7630342002
0.86826744229
42.7629077318
0.868209310835
42.7628039944