/*--------------------------------*- C++ -*----------------------------------*\
  =========                 |
  \\      /  F ield         | OpenFOAM: The Open Source CFD Toolbox
   \\    /   O peration     | Website:  https://openfoam.org
    \\  /    A nd           | Version:  6
     \\/     M anipulation  |
\*---------------------------------------------------------------------------*/
FoamFile
{
    version     2.0;
    format      ascii;
    class       volScalarField;
    location    "0.261799";
    object      rAU;
}
// * * * * * * * * * * * * * * * * * * * * * * * * * * * * * * * * * * * * * //

dimensions      [0 0 1 0 0 0 0];

internalField   nonuniform List<scalar> 
43264
(
0.000179290972922
0.000179191686849
0.000179089755159
0.000178984850597
0.000178876955827
0.000178765983007
0.00017865183934
0.000178534432026
0.000178413664455
0.000178289429825
0.00017816161724
0.000178030120324
0.000177894843569
0.000177755702431
0.000177612617503
0.00017746550553
0.000177314271511
0.000177158805148
0.000176998982534
0.00017683467159
0.000176665738516
0.000176492052709
0.0001763134888
0.000176129925764
0.000175941244217
0.000175747323152
0.000175548037309
0.00017534325571
0.000175132841419
0.000174916652198
0.0001746945416
0.000174466360084
0.000174231955891
0.000173991175552
0.000173743864067
0.00017348986483
0.00017322901942
0.000172961167341
0.000172686145792
0.000172403789493
0.000172113930577
0.000171816398556
0.000171511020317
0.000171197620195
0.000170876020028
0.000170546039299
0.000170207495199
0.000169859508579
0.00016542785875
0.000165426392388
0.00016542631053
0.000165426228275
0.000165426145319
0.000165426061379
0.00016542597619
0.000165425889522
0.000165425801187
0.000165425711015
0.000165425618877
0.000165425524683
0.000165425428373
0.000165425329945
0.000165425229451
0.000165425126994
0.000165425022729
0.000165424916852
0.000165424809555
0.000165424701021
0.000165424591411
0.000165424480843
0.000165424369406
0.000165424257165
0.000165424144144
0.000165424030342
0.000165423915729
0.00016542380023
0.000165423683742
0.000165423566131
0.000165423447233
0.000165423326876
0.000165423204885
0.000165423081086
0.000165422955318
0.000165422827447
0.00016542269735
0.000165422564934
0.000165422430134
0.000165422292898
0.000165422153206
0.000165422011052
0.000165421866449
0.000165421719423
0.000165421570014
0.000165421418272
0.000165421264254
0.000165421108025
0.000165420949652
0.000165420789199
0.000165420626729
0.000165420462295
0.000165420295946
0.000165420127722
0.000165419957655
0.000165419785777
0.00016541961212
0.000165419436718
0.000165419259607
0.000165419080834
0.000165418900433
0.000165418718445
0.000165418534906
0.000165418349856
0.000165418163306
0.00016541797528
0.000165417785798
0.000165417594892
0.000165417402605
0.000165417208981
0.000165417014075
0.000165416817953
0.000165416620674
0.000165416422304
0.00016541622291
0.000165416022553
0.000165415821296
0.000165415619206
0.00016541541634
0.00016541521276
0.000165415008528
0.000165414803699
0.00016541459833
0.000165414392482
0.000165414186207
0.000165413979563
0.000165413772611
0.000165413565403
0.000165413357992
0.000165413150433
0.000165412942766
0.000165412735034
0.000165412527281
0.00016541231954
0.000165412111853
0.000165411904265
0.000165411696821
0.000165411489571
0.000165411282575
0.000165411075884
0.000165410869554
0.000165410663644
0.000165410458202
0.000165410253277
0.000165410048919
0.000165409845168
0.000165409642065
0.000165409439655
0.000165409237973
0.000165409037059
0.000165408836957
0.000165408637699
0.000165408439325
0.000165408241876
0.000165408045385
0.000165407849886
0.00016540765542
0.000165407462014
0.000165407269702
0.000165407078518
0.000165406888488
0.000165406699641
0.000165406512008
0.000165406325609
0.000165406140468
0.000165405956609
0.000165405774045
0.00016540559279
0.000165405412862
0.000165405234262
0.000165405056994
0.000165404881066
0.00016540470647
0.000165404533202
0.000165404361261
0.000165404190635
0.000165404021315
0.000165403853292
0.000165403686551
0.000165403521072
0.000165403356842
0.000165403193819
0.00016540303199
0.00016540691825
0.00017602521137
0.000176212041993
0.000176393255573
0.000176569559307
0.000176741077488
0.000176907931531
0.000177070240403
0.000177228120363
0.000177381685099
0.000177531045788
0.000177676311127
0.00017781758733
0.000177954978154
0.000178088584918
0.000178218506532
0.000178344839551
0.000178467678233
0.000178587114656
0.000178703238787
0.000178816138485
0.000178925899441
0.000179032605101
0.000179136336714
0.000179237173454
0.000179335192589
0.000179430469526
0.000179523077848
0.000179613089218
0.000179700573502
0.000179785598692
0.000179868231191
0.000179948535571
0.000180026575041
0.000180102410841
0.000180176103178
0.000180247709961
0.0001803172887
0.000180384893917
0.000180450580911
0.000180514400498
0.000180576406546
0.000180636645289
0.000180695170653
0.000180752022063
0.000180807256989
0.000180860901577
0.000180913026822
0.00018096370824
0.000179276241799
0.00017917657003
0.000179074402829
0.000178969286606
0.000178861166706
0.000178749973547
0.000178635625522
0.000178518041629
0.000178397143569
0.000178272844865
0.000178145044273
0.000178013626853
0.000177878471967
0.000177739463017
0.000177596493868
0.000177449468846
0.000177298297011
0.00017714288412
0.000176983126254
0.000176818907507
0.000176650101854
0.000176476577486
0.000176298201379
0.000176114842273
0.000175926371498
0.000175732661866
0.000175533585605
0.000175329012233
0.000175118807039
0.000174902830428
0.000174680938042
0.000174452981381
0.000174218808613
0.000173978265325
0.000173731195074
0.000173477439685
0.000173216839341
0.000172949232511
0.000172674455794
0.000172392343741
0.000172102728671
0.000171805440553
0.000171500306894
0.000171187152726
0.000170865800572
0.000170536070569
0.000170197780429
0.000169850088608
0.000165420439235
0.000165419164672
0.000165419197809
0.00016541922767
0.000165419254001
0.000165419276538
0.000165419295007
0.00016541930917
0.000165419318841
0.00016541932389
0.000165419324257
0.000165419319958
0.000165419311068
0.000165419297729
0.000165419280139
0.000165419258541
0.00016541923324
0.000165419204602
0.000165419173031
0.000165419138957
0.000165419102811
0.000165419064981
0.000165419025803
0.000165418985549
0.000165418944404
0.000165418902481
0.000165418859821
0.000165418816383
0.00016541877206
0.000165418726681
0.00016541868001
0.000165418631765
0.000165418581636
0.000165418529283
0.000165418474367
0.000165418416564
0.000165418355559
0.000165418291076
0.00016541822288
0.000165418150767
0.000165418074586
0.000165417994221
0.000165417909595
0.000165417820664
0.000165417727409
0.000165417629833
0.000165417527954
0.000165417421803
0.000165417311418
0.000165417196843
0.000165417078123
0.000165416955303
0.000165416828421
0.00016541669751
0.000165416562592
0.000165416423681
0.000165416280783
0.0001654161339
0.000165415983034
0.000165415828196
0.000165415669396
0.000165415506651
0.000165415339989
0.000165415169426
0.000165414994983
0.00016541481668
0.00016541463452
0.000165414448507
0.000165414258649
0.000165414064947
0.000165413867414
0.000165413666073
0.000165413460946
0.000165413252066
0.000165413039476
0.000165412823213
0.000165412603318
0.000165412379843
0.000165412152832
0.000165411922333
0.000165411688401
0.000165411451082
0.000165411210428
0.000165410966494
0.000165410719326
0.000165410468978
0.000165410215509
0.000165409958975
0.000165409699435
0.000165409436955
0.000165409171592
0.000165408903403
0.000165408632448
0.000165408358774
0.000165408082429
0.000165407803467
0.000165407521935
0.000165407237889
0.000165406951395
0.000165406662513
0.000165406371315
0.000165406077877
0.000165405782269
0.000165405484566
0.000165405184845
0.000165404883175
0.000165404579627
0.000165404274278
0.000165403967194
0.000165403658448
0.000165403348117
0.000165403036273
0.000165402722991
0.000165402408355
0.000165402092439
0.000165401775325
0.000165401457099
0.000165401137841
0.000165400817634
0.000165400496569
0.00016540017473
0.000165399852204
0.000165399529087
0.000165399205466
0.000165398881433
0.000165398557087
0.000165398232517
0.000165397907819
0.000165397583091
0.000165397258424
0.000165396933912
0.000165396609652
0.000165396285733
0.000165395962251
0.000165395639307
0.000165395316997
0.000165394995427
0.000165394674711
0.000165394354965
0.000165394036305
0.000165393718876
0.000165393402779
0.00016539308821
0.000165396607585
0.000176012042581
0.000176198573017
0.000176379524769
0.000176555574593
0.000176726846085
0.000176893460549
0.000177055536933
0.000177213191749
0.000177366538997
0.000177515690228
0.00017766075458
0.000177801838793
0.000177939047234
0.000178072481906
0.000178202242453
0.000178328426123
0.000178451127714
0.000178570439643
0.000178686452085
0.000178799253145
0.000178908928888
0.000179015563184
0.00017911923756
0.000179220031174
0.000179318021011
0.000179413282045
0.000179505887365
0.000179595908062
0.000179683413308
0.000179768470238
0.000179851144314
0.00017993149911
0.000180009596883
0.000180085497853
0.00018015926124
0.000180230943771
0.000180300601968
0.000180368289048
0.000180434059654
0.000180497963135
0.000180560053564
0.000180620374976
0.000180678983818
0.00018073591442
0.000180791234512
0.000180844954077
0.000180897182086
0.000180947948883
0.00017926154706
0.00017916220884
0.000179060260357
0.000178955341053
0.000178847411631
0.000178736391186
0.000178622190872
0.000178504726032
0.000178383917217
0.000178259681047
0.000178131924676
0.000178000544032
0.00017786542734
0.000177726461786
0.000177583540002
0.000177436562808
0.000177285436982
0.000177130069497
0.000176970361204
0.000176806202722
0.000176637473809
0.000176464045782
0.000176285785442
0.0001761025587
0.000175914232812
0.000175720676796
0.000175521760453
0.000175317352656
0.000175107319648
0.000174891523792
0.000174669822992
0.000174442070688
0.000174208116281
0.000173967805721
0.000173720982106
0.000173467486163
0.000173207156565
0.0001729398301
0.000172665341708
0.00017238352444
0.000172094209372
0.000171797225513
0.000171492399714
0.000171179556607
0.00017085851857
0.000170529105739
0.00017019113602
0.000169843798418
0.00016541723781
0.000165416072042
0.000165416152323
0.000165416228279
0.000165416299696
0.000165416366348
0.000165416427984
0.000165416484352
0.000165416535213
0.000165416580337
0.000165416619526
0.000165416652625
0.000165416679521
0.000165416700161
0.00016541671456
0.000165416722788
0.000165416724984
0.000165416721355
0.000165416712157
0.000165416697696
0.000165416678308
0.000165416654332
0.000165416626104
0.000165416593941
0.000165416558117
0.000165416518863
0.00016541647636
0.000165416430719
0.000165416381989
0.000165416330157
0.000165416275133
0.000165416216771
0.000165416154875
0.000165416089199
0.000165416019471
0.000165415945403
0.000165415866695
0.000165415783053
0.000165415694207
0.000165415599898
0.000165415499903
0.000165415394029
0.000165415282117
0.000165415164038
0.000165415039694
0.000165414909013
0.000165414771946
0.000165414628461
0.000165414478542
0.000165414322182
0.000165414159387
0.000165413990163
0.000165413814523
0.000165413632475
0.000165413444024
0.000165413249171
0.000165413047909
0.000165412840226
0.000165412626107
0.000165412405546
0.000165412178533
0.00016541194507
0.000165411705169
0.000165411458842
0.000165411206103
0.000165410946973
0.000165410681459
0.000165410409567
0.000165410131305
0.000165409846672
0.000165409555672
0.000165409258319
0.000165408954625
0.000165408644613
0.000165408328316
0.000165408005762
0.00016540767699
0.000165407342045
0.000165407000969
0.000165406653808
0.00016540630062
0.000165405941453
0.000165405576361
0.000165405205405
0.000165404828635
0.00016540444611
0.000165404057895
0.000165403664049
0.000165403264642
0.000165402859755
0.000165402449459
0.000165402033834
0.000165401612962
0.000165401186914
0.000165400755759
0.00016540031957
0.000165399878408
0.000165399432342
0.000165398981447
0.000165398525793
0.000165398065462
0.000165397600544
0.000165397131124
0.000165396657294
0.000165396179153
0.00016539569679
0.000165395210302
0.000165394719787
0.000165394225335
0.000165393727044
0.000165393225012
0.000165392719335
0.00016539221011
0.000165391697443
0.000165391181433
0.000165390662182
0.000165390139801
0.000165389614392
0.000165389086062
0.000165388554923
0.000165388021081
0.000165387484646
0.000165386945735
0.000165386404455
0.00016538586092
0.000165385315251
0.000165384767559
0.000165384217961
0.00016538366658
0.000165383113527
0.000165382558918
0.000165382002872
0.000165381445494
0.000165380886893
0.00016538032718
0.000165379766456
0.000165379204825
0.000165378642396
0.000165378079273
0.000165377515566
0.000165376951389
0.000165376386858
0.000165375822076
0.000165378926182
0.000175995704617
0.000176182003903
0.000176362749531
0.000176538595301
0.000176709665765
0.000176876082928
0.000177037966439
0.000177195433467
0.000177348598726
0.000177497574525
0.000177642470787
0.000177783395048
0.000177920452464
0.000178053745831
0.000178183375598
0.000178309439847
0.000178432034201
0.000178551251819
0.000178667183491
0.000178779917831
0.000178889541388
0.000178996138519
0.000179099791154
0.000179200578658
0.000179298577958
0.000179393863746
0.000179486508667
0.000179576583242
0.000179664155892
0.000179749292796
0.000179832058246
0.000179912514571
0.000179990722728
0.000180066741688
0.000180140629309
0.000180212440955
0.000180282231595
0.000180350053003
0.000180415958279
0.000180479995413
0.00018054221712
0.000180602666027
0.000180661397532
0.000180718444
0.000180773872251
0.00018082768941
0.000180879998424
0.000180930830651
0.000179245726728
0.000179146094359
0.000179043939665
0.000178938838985
0.000178830739149
0.000178719567255
0.000178605235671
0.000178487658952
0.000178366756567
0.00017824244482
0.000178114630171
0.000177983206943
0.000177848060342
0.000177709073044
0.00017756613223
0.00017741913354
0.000177267980278
0.000177112578654
0.000176952831569
0.000176788633662
0.000176619869279
0.000176446413491
0.000176268135127
0.000176084900218
0.000175896574698
0.000175703025616
0.000175504120978
0.000175299728632
0.000175089714791
0.000174873942713
0.000174652271809
0.000174424557254
0.000174190650035
0.000173950397279
0.000173703642703
0.00017345022707
0.000173189988571
0.000172922763117
0.00017264838452
0.000172366684607
0.000172077493256
0.000171780638409
0.000171475946052
0.000171163240196
0.000170842342848
0.00017051307402
0.000170175251685
0.000169828095019
0.000165402026398
0.000165401050756
0.000165401261287
0.000165401467288
0.000165401668723
0.00016540186551
0.000165402057507
0.000165402244536
0.000165402426385
0.000165402602804
0.000165402773512
0.000165402938211
0.000165403096581
0.000165403248304
0.000165403393078
0.000165403530625
0.000165403660725
0.000165403783231
0.000165403898068
0.000165404005239
0.000165404104824
0.000165404196953
0.000165404281814
0.00016540435964
0.00016540443069
0.000165404495251
0.000165404553626
0.000165404606105
0.000165404652966
0.000165404694461
0.000165404730787
0.000165404762097
0.000165404788496
0.000165404810022
0.000165404826666
0.000165404838379
0.000165404845059
0.000165404846577
0.000165404842786
0.000165404833512
0.000165404818583
0.000165404797822
0.000165404771061
0.00016540473814
0.000165404698915
0.000165404653258
0.000165404601057
0.00016540454222
0.00016540447667
0.000165404404348
0.000165404325207
0.000165404239213
0.000165404146339
0.000165404046564
0.000165403939868
0.000165403826231
0.000165403705629
0.000165403578039
0.000165403443431
0.000165403301787
0.000165403153081
0.000165402997296
0.000165402834428
0.000165402664464
0.000165402487399
0.000165402303232
0.000165402111954
0.000165401913554
0.000165401708023
0.000165401495342
0.000165401275498
0.000165401048485
0.000165400814294
0.000165400572921
0.000165400324377
0.000165400068665
0.000165399805798
0.000165399535795
0.000165399258673
0.000165398974456
0.000165398683175
0.000165398384856
0.000165398079531
0.000165397767239
0.000165397448011
0.000165397121884
0.000165396788903
0.000165396449106
0.000165396102544
0.000165395749276
0.000165395389359
0.000165395022857
0.00016539464984
0.000165394270366
0.000165393884496
0.000165393492295
0.000165393093815
0.000165392689112
0.000165392278251
0.00016539186129
0.000165391438296
0.000165391009349
0.000165390574521
0.000165390133897
0.000165389687567
0.000165389235615
0.000165388778133
0.000165388315218
0.000165387846958
0.000165387373448
0.000165386894791
0.00016538641108
0.000165385922416
0.000165385428907
0.000165384930655
0.000165384427769
0.000165383920363
0.000165383408547
0.000165382892437
0.000165382372155
0.000165381847816
0.000165381319543
0.000165380787465
0.000165380251706
0.000165379712394
0.00016537916967
0.000165378623665
0.00016537807452
0.000165377522383
0.000165376967395
0.000165376409704
0.000165375849464
0.000165375286816
0.000165374721906
0.000165374154883
0.000165373585883
0.000165373015046
0.000165372442514
0.000165371868423
0.000165371292911
0.000165370716127
0.000165370138207
0.000165369559296
0.000165372495217
0.000175983817853
0.000176169935136
0.000176350521017
0.000176526207416
0.000176697118485
0.000176863376146
0.000177025099949
0.000177182407072
0.000177335412266
0.000177484227931
0.00017762896415
0.000177769728691
0.000177906627022
0.00017803976233
0.000178169235542
0.000178295145294
0.000178417587826
0.000178536656926
0.000178652443989
0.000178765038219
0.000178874526793
0.000178980994775
0.000179084524859
0.000179185197131
0.000179283089115
0.000179378275957
0.000179470830651
0.000179560823998
0.000179648324585
0.000179733398588
0.000179816110087
0.000179896521052
0.00017997469204
0.000180050681631
0.000180124547298
0.000180196343921
0.000180266125959
0.00018033394451
0.000180399852208
0.000180463896267
0.000180526129329
0.00018058659305
0.000180645343721
0.000180702412378
0.000180757868328
0.000180811718484
0.000180864065491
0.000180914953386
0.000179229574942
0.000179130193718
0.000179028229408
0.000178923300711
0.000178815360278
0.000178704330467
0.000178590122183
0.000178472648899
0.000178351828889
0.00017822757861
0.00017809980756
0.000177968415905
0.000177833295936
0.000177694336479
0.000177551428139
0.000177404466624
0.000177253352625
0.000177097988601
0.000176938274241
0.000176774102662
0.000176605358694
0.000176431919458
0.000176253656537
0.000176070438547
0.000175882133235
0.000175688608489
0.000175489732329
0.00017528537212
0.000175075393498
0.000174859659347
0.000174638029071
0.000174410358231
0.000174176498502
0.000173936297858
0.000173689600871
0.00017343624904
0.000173176081089
0.000172908933227
0.000172634639328
0.000172353031082
0.000172063938085
0.000171767187908
0.000171462606128
0.000171150016355
0.000170829240244
0.000170500097502
0.000170162405882
0.000169815409102
0.000165390866689
0.000165389937645
0.000165390146827
0.000165390352889
0.000165390555764
0.000165390755346
0.000165390951466
0.000165391143893
0.000165391332348
0.000165391516481
0.000165391695892
0.000165391870136
0.000165392038726
0.000165392201155
0.000165392356911
0.000165392505484
0.000165392646406
0.000165392779265
0.000165392903716
0.000165393019497
0.000165393126437
0.00016539322444
0.000165393313495
0.000165393393674
0.000165393465114
0.000165393528018
0.000165393582647
0.000165393629294
0.000165393668274
0.000165393699912
0.000165393724513
0.00016539374236
0.000165393753702
0.000165393758736
0.000165393757616
0.000165393750448
0.000165393737282
0.000165393718124
0.000165393692947
0.000165393661679
0.000165393624226
0.000165393580476
0.000165393530302
0.000165393473574
0.000165393410159
0.000165393339932
0.000165393262775
0.000165393178585
0.00016539308727
0.000165392988753
0.000165392882973
0.000165392769881
0.000165392649438
0.000165392521616
0.000165392386389
0.000165392243735
0.000165392093634
0.000165391936063
0.000165391771001
0.000165391598433
0.000165391418339
0.000165391230709
0.000165391035542
0.000165390832828
0.000165390622566
0.00016539040476
0.000165390179405
0.000165389946498
0.000165389706038
0.000165389458014
0.000165389202421
0.000165388939262
0.000165388668533
0.000165388390241
0.000165388104398
0.000165387811016
0.000165387510111
0.000165387201709
0.000165386885828
0.000165386562498
0.000165386231751
0.000165385893619
0.000165385548136
0.000165385195344
0.000165384835279
0.000165384467981
0.000165384093496
0.000165383711866
0.000165383323142
0.000165382927382
0.000165382524643
0.000165382114986
0.000165381698481
0.00016538127519
0.000165380845175
0.000165380408505
0.000165379965237
0.000165379515432
0.00016537905916
0.000165378596483
0.000165378127471
0.000165377652204
0.000165377170756
0.000165376683211
0.000165376189657
0.000165375690179
0.000165375184866
0.000165374673814
0.000165374157112
0.000165373634852
0.000165373107137
0.000165372574057
0.000165372035713
0.000165371492209
0.000165370943644
0.000165370390125
0.000165369831761
0.00016536926866
0.000165368700931
0.000165368128693
0.000165367552056
0.000165366971137
0.00016536638606
0.000165365796941
0.000165365203903
0.000165364607078
0.000165364006589
0.00016536340257
0.000165362795159
0.00016536218449
0.000165361570704
0.000165360953947
0.000165360334356
0.000165359712072
0.00016535908724
0.000165358459991
0.000165357830463
0.000165357198794
0.000165356565115
0.00016535592956
0.000165355292268
0.000165354653381
0.000165354013004
0.00016535674145
0.000175967733185
0.000176153791347
0.000176334338689
0.000176509985883
0.000176680857324
0.000176847074888
0.000177008758131
0.000177166024199
0.000177318987847
0.000177467761502
0.000177612455285
0.00017775317701
0.000177890032203
0.00017802312413
0.000178152553829
0.000178278420105
0.000178400819419
0.000178519845821
0.000178635590967
0.000178748144311
0.000178857593281
0.000178964023234
0.000179067517217
0.000179168155703
0.000179266016588
0.000179361175345
0.000179453705246
0.000179543677341
0.000179631160416
0.000179716220754
0.000179798922381
0.00017987932711
0.000179957495269
0.000180033485258
0.000180107354341
0.000180179157218
0.000180248948013
0.000180316777542
0.000180382697933
0.000180446756123
0.000180509004002
0.000180569483093
0.000180628248166
0.000180685330979
0.000180740796242
0.000180794656564
0.00018084699529
0.000180897889024
0.000179212364554
0.000179112769733
0.000179010643326
0.000178905576542
0.000178797517589
0.000178686391974
0.000178572109408
0.000178454581956
0.000178333726107
0.000178209456051
0.00017808167816
0.000177950289199
0.00017781517845
0.000177676232552
0.000177533340741
0.000177386397887
0.000177235304016
0.000177079960907
0.000176920267579
0.000176756116658
0.000176587392823
0.000176413973443
0.000176235730649
0.000176052533703
0.000175864250887
0.000175670750347
0.000175471900036
0.000175267566981
0.000175057616326
0.000174841910458
0.000174620308403
0.000174392665549
0.000174158833631
0.0001739186609
0.000173671992376
0.000173418670107
0.000173158533409
0.000172891419062
0.000172617161454
0.000172335592701
0.000172046542726
0.000171749839329
0.000171445308229
0.000171132773106
0.000170812055622
0.000170482975471
0.000170145350354
0.000169798438683
0.000165374353665
0.000165373504488
0.000165373764673
0.000165374022156
0.000165374276839
0.000165374528584
0.000165374777192
0.000165375022425
0.000165375263998
0.000165375501567
0.000165375734741
0.000165375963081
0.000165376186102
0.000165376403292
0.000165376614125
0.000165376818074
0.000165377014641
0.000165377203383
0.000165377383908
0.000165377555899
0.000165377719111
0.000165377873366
0.000165378018559
0.000165378154661
0.000165378281704
0.000165378399793
0.000165378509093
0.000165378609808
0.000165378702181
0.000165378786474
0.000165378862944
0.000165378931841
0.0001653789934
0.000165379047819
0.000165379095266
0.000165379135874
0.000165379169733
0.000165379196896
0.000165379217389
0.000165379231195
0.000165379238279
0.000165379238582
0.00016537923203
0.000165379218538
0.000165379198017
0.000165379170376
0.000165379135529
0.000165379093395
0.000165379043904
0.000165378986993
0.000165378922615
0.000165378850728
0.000165378771302
0.000165378684311
0.000165378589736
0.000165378487558
0.000165378377759
0.000165378260322
0.000165378135229
0.00016537800247
0.000165377862029
0.000165377713901
0.00016537755809
0.000165377394588
0.000165377223396
0.000165377044522
0.000165376857962
0.000165376663713
0.000165376461775
0.00016537625214
0.000165376034805
0.000165375809771
0.000165375577038
0.000165375336613
0.00016537508851
0.00016537483274
0.000165374569322
0.000165374298279
0.000165374019633
0.00016537373341
0.000165373439645
0.000165373138367
0.00016537282961
0.000165372513415
0.000165372189818
0.000165371858856
0.000165371520578
0.000165371175021
0.000165370822236
0.000165370462277
0.000165370095197
0.000165369721056
0.000165369339918
0.000165368951841
0.000165368556887
0.000165368155122
0.000165367746603
0.000165367331391
0.000165366909556
0.000165366481162
0.000165366046281
0.000165365604992
0.000165365157371
0.0001653647035
0.000165364243468
0.00016536377736
0.000165363305265
0.00016536282728
0.000165362343491
0.000165361853997
0.000165361358897
0.000165360858286
0.000165360352266
0.000165359840946
0.000165359324427
0.000165358802818
0.000165358276236
0.000165357744789
0.000165357208595
0.000165356667777
0.000165356122452
0.000165355572743
0.000165355018782
0.000165354460693
0.000165353898607
0.000165353332662
0.000165352762993
0.000165352189738
0.000165351613047
0.000165351033062
0.000165350449931
0.000165349863812
0.000165349274853
0.000165348683208
0.000165348089037
0.00016534749249
0.000165346893722
0.000165346292891
0.000165345690148
0.000165345085648
0.00016534447955
0.000165343872008
0.000165343263151
0.000165345916496
0.000175953304084
0.000176139286038
0.000176319772706
0.00017649535943
0.000176666170207
0.000176832326798
0.000176993948585
0.000177151152578
0.000177304053384
0.000177452763302
0.000177597392347
0.000177738048261
0.000177874836524
0.000178007860389
0.00017813722091
0.000178263016935
0.000178385344993
0.000178504299221
0.000178619971396
0.000178732451129
0.00017884182605
0.000178948181772
0.00017905160164
0.000179152166454
0.000179249954446
0.00017934504142
0.00017943750098
0.000179527404511
0.000179614821118
0.000179699817366
0.000179782457485
0.000179862803434
0.000179940915641
0.000180016852641
0.00018009067182
0.000180162428018
0.000180232175424
0.000180299964946
0.000180365848736
0.000180429873862
0.000180492092258
0.00018055254577
0.000180611289158
0.00018066835531
0.000180723807952
0.00018077766467
0.000180830000245
0.000180880915073
0.000179194635574
0.000179095223488
0.000178993245211
0.000178888308558
0.000178780364197
0.000178669336365
0.000178555135816
0.000178437675732
0.000178316874247
0.00017819264809
0.000178064907039
0.000177933551465
0.000177798473676
0.000177659562249
0.000177516707184
0.000177369803221
0.000177218749811
0.000177063448137
0.00017690379688
0.000176739688689
0.000176571008589
0.000176397634497
0.000176219439153
0.000176036292367
0.000175848062814
0.00017565461885
0.000175455828439
0.000175251558469
0.000175041673836
0.000174826036638
0.000174604505627
0.000174376935974
0.00017414317929
0.000173903083806
0.000173656494617
0.000173403253932
0.000173143201287
0.000172876173708
0.000172602005832
0.000172320530001
0.000172031576317
0.000171734972701
0.000171430544928
0.000171118116671
0.00017079750953
0.00017046854308
0.000170131034878
0.000169784249807
0.000165361661238
0.000165360813763
0.000165361062798
0.000165361309529
0.000165361553774
0.000165361795333
0.000165362033963
0.000165362269388
0.000165362501305
0.000165362729369
0.000165362953203
0.000165363172401
0.000165363386524
0.000165363595113
0.000165363797704
0.000165363993824
0.000165364183026
0.000165364364908
0.000165364539109
0.000165364705326
0.000165364863317
0.000165365012884
0.000165365153888
0.000165365286245
0.000165365409915
0.000165365524915
0.000165365631311
0.000165365729198
0.000165365818705
0.00016536589998
0.000165365973169
0.000165366038417
0.000165366095862
0.000165366145616
0.000165366187775
0.000165366222414
0.000165366249578
0.000165366269291
0.000165366281559
0.000165366286362
0.000165366283666
0.000165366273426
0.000165366255585
0.00016536623008
0.000165366196845
0.000165366155813
0.000165366106919
0.000165366050104
0.000165365985315
0.000165365912507
0.000165365831641
0.000165365742689
0.000165365645625
0.000165365540433
0.000165365427094
0.000165365305592
0.000165365175913
0.00016536503804
0.000165364891955
0.000165364737651
0.000165364575117
0.000165364404347
0.000165364225353
0.000165364038132
0.000165363842689
0.000165363639039
0.000165363427184
0.000165363207127
0.000165362978873
0.000165362742418
0.000165362497764
0.00016536224492
0.000165361983888
0.000165361714682
0.000165361437322
0.000165361151824
0.000165360858212
0.000165360556517
0.000165360246764
0.000165359928986
0.000165359603222
0.000165359269508
0.000165358927882
0.000165358578392
0.000165358221075
0.000165357855976
0.000165357483147
0.00016535710263
0.000165356714479
0.000165356318754
0.000165355915511
0.000165355504812
0.000165355086728
0.000165354661318
0.000165354228646
0.000165353788782
0.000165353341785
0.00016535288772
0.000165352426659
0.000165351958668
0.000165351483824
0.000165351002208
0.0001653505139
0.000165350018982
0.000165349517549
0.000165349009685
0.000165348495481
0.000165347975035
0.000165347448438
0.000165346915785
0.000165346377179
0.000165345832717
0.000165345282501
0.00016534472664
0.000165344165237
0.000165343598402
0.000165343026253
0.000165342448899
0.000165341866459
0.000165341279057
0.000165340686811
0.000165340089845
0.000165339488292
0.000165338882276
0.00016533827193
0.000165337657394
0.0001653370388
0.000165336416289
0.000165335790008
0.000165335160099
0.000165334526711
0.000165333889999
0.000165333250112
0.000165332607204
0.000165331961435
0.000165331312958
0.000165330661929
0.000165330008513
0.000165329352865
0.000165328695145
0.000165328035515
0.000165327374145
0.000165326711141
0.000165329251077
0.000175936024465
0.000176121953481
0.000176302395834
0.000176477938037
0.000176648704233