/*--------------------------------*- C++ -*----------------------------------*\
  =========                 |
  \\      /  F ield         | OpenFOAM: The Open Source CFD Toolbox
   \\    /   O peration     | Website:  https://openfoam.org
    \\  /    A nd           | Version:  6
     \\/     M anipulation  |
\*---------------------------------------------------------------------------*/
FoamFile
{
    version     2.0;
    format      ascii;
    class       volVectorField;
    location    "0.261799";
    object      U;
}
// * * * * * * * * * * * * * * * * * * * * * * * * * * * * * * * * * * * * * //

dimensions      [0 1 -1 0 0 0 0];

internalField   nonuniform List<vector> 
43264
(
(59.4126909658 8.32999489841 0)
(59.4082240505 8.30858760221 0)
(59.4058851616 8.29876050108 0)
(59.4029729224 8.29358538836 0)
(59.3997879785 8.28843791759 0)
(59.3964682093 8.28322883361 0)
(59.393171936 8.27826511138 0)
(59.3899632223 8.27350197234 0)
(59.3870058916 8.26870924112 0)
(59.3845474704 8.26396626349 0)
(59.3827668916 8.25961431367 0)
(59.3816826375 8.25606331351 0)
(59.3811178126 8.25357229728 0)
(59.3807707063 8.25213143319 0)
(59.3803295815 8.25146547094 0)
(59.3795871896 8.25114774201 0)
(59.3784989113 8.25075892501 0)
(59.3771717258 8.25001876792 0)
(59.3757995383 8.24884369387 0)
(59.3745814397 8.24732500687 0)
(59.3736566028 8.2456547805 0)
(59.3730748246 8.2440391393 0)
(59.3728030857 8.24263181987 0)
(59.3727556615 8.2415037199 0)
(59.3728310996 8.24064675519 0)
(59.3729425559 8.23999950725 0)
(59.3730346633 8.23947949769 0)
(59.3730866352 8.23901033085 0)
(59.3731055016 8.23853786841 0)
(59.3731147501 8.23803503033 0)
(59.3731429512 8.23749821184 0)
(59.37321515 8.23693942282 0)
(59.3733480744 8.23637776815 0)
(59.3735487375 8.23583255897 0)
(59.3738155553 8.23531903851 0)
(59.3741405768 8.23484658445 0)
(59.3745122853 8.23441884259 0)
(59.3749176622 8.23403483824 0)
(59.3753444002 8.23369062686 0)
(59.3757812291 8.23338059673 0)
(59.3762198358 8.23309886942 0)
(59.3766527159 8.23283960437 0)
(59.3770770716 8.23259813438 0)
(59.3774876475 8.23236989098 0)
(59.3778884336 8.23215248719 0)
(59.3782712781 8.23194204335 0)
(59.378652666 8.23173955741 0)
(59.3790071051 8.2315378143 0)
(59.3793413789 8.23137229027 0)
(59.3796682927 8.23123302991 0)
(59.3799798621 8.2310884727 0)
(59.3802944809 8.23093945562 0)
(59.3806139444 8.23078639508 0)
(59.3809368524 8.23062992804 0)
(59.3812650013 8.23047057276 0)
(59.3815991742 8.2303085504 0)
(59.3819399557 8.23014378887 0)
(59.382287953 8.22997618216 0)
(59.3826436024 8.22980589693 0)
(59.383007194 8.22963353549 0)
(59.3833788551 8.22946018865 0)
(59.3837585165 8.22928734965 0)
(59.3841458915 8.22911658804 0)
(59.3845404769 8.2289490611 0)
(59.3849415995 8.2287851528 0)
(59.3853485022 8.22862448246 0)
(59.3857604396 8.22846625561 0)
(59.3861767505 8.22830971501 0)
(59.3865968963 8.2281544505 0)
(59.3870204686 8.22800047158 0)
(59.3874471811 8.22784808417 0)
(59.3878768603 8.22769767529 0)
(59.388309444 8.22754951298 0)
(59.3887449896 8.22740364101 0)
(59.3891836859 8.22725989696 0)
(59.3896258603 8.22711802316 0)
(59.3900719709 8.22697780241 0)
(59.3905225841 8.22683915517 0)
(59.3909783401 8.22670217178 0)
(59.3914399139 8.22656709042 0)
(59.3919079776 8.22643424797 0)
(59.3923831675 8.22630402681 0)
(59.3928660589 8.2261768099 0)
(59.3933571483 8.22605294906 0)
(59.3938568425 8.2259327475 0)
(59.3943654553 8.22581645553 0)
(59.394883208 8.22570427592 0)
(59.395410235 8.22559637511 0)
(59.3959465917 8.22549289772 0)
(59.3964922638 8.22539398232 0)
(59.3970471767 8.22529977527 0)
(59.3976112041 8.22521043765 0)
(59.3981841758 8.22512614081 0)
(59.3987658852 8.2250470494 0)
(59.3993560984 8.22497329652 0)
(59.3999545645 8.22490495989 0)
(59.4005610289 8.22484204849 0)
(59.4011752454 8.22478450636 0)
(59.4017969889 8.22473223471 0)
(59.4024260627 8.22468512792 0)
(59.4030623009 8.22464311327 0)
(59.4037055647 8.22460618226 0)
(59.4043557324 8.22457440211 0)
(59.4050126871 8.22454790194 0)
(59.4056763049 8.224526837 0)
(59.406346448 8.22451134263 0)
(59.4070229652 8.22450149443 0)
(59.4077056978 8.22449728893 0)
(59.408394491 8.22449865526 0)
(59.4090892051 8.22450548192 0)
(59.4097897209 8.2245177099 0)
(59.4104959358 8.22453530107 0)
(59.4112077628 8.22455829425 0)
(59.4119251198 8.22458686661 0)
(59.4126479056 8.22462125485 0)
(59.4133759895 8.22466171532 0)
(59.4141092083 8.22470847664 0)
(59.4148473658 8.22476170309 0)
(59.4155902395 8.22482148057 0)
(59.4163375909 8.22488782517 0)
(59.4170891743 8.22496070688 0)
(59.4178447432 8.2250400763 0)
(59.4186040529 8.22512588423 0)
(59.4193668617 8.22521808905 0)
(59.4201329298 8.2253166542 0)
(59.4209020203 8.22542154182 0)
(59.4216738995 8.22553270903 0)
(59.4224483388 8.22565010948 0)
(59.4232251147 8.22577369914 0)
(59.4240040085 8.22590344208 0)
(59.4247848043 8.22603931229 0)
(59.4255672861 8.22618128923 0)
(59.4263512372 8.22632934835 0)
(59.4271364397 8.22648345009 0)
(59.4279226776 8.22664353207 0)
(59.4287097413 8.2268095085 0)
(59.4294974327 8.22698127802 0)
(59.4302855689 8.2271587383 0)
(59.4310739832 8.22734180311 0)
(59.4318625222 8.22753041636 0)
(59.43265104 8.22772455844 0)
(59.4334393894 8.22792424263 0)
(59.4342274148 8.22812950267 0)
(59.4350149458 8.22834037514 0)
(59.4358017954 8.22855688186 0)
(59.4365877622 8.22877901685 0)
(59.4373726347 8.22900674077 0)
(59.438156198 8.22923998289 0)
(59.4389382405 8.22947864884 0)
(59.4397185587 8.22972263113 0)
(59.4404969601 8.22997181934 0)
(59.441273264 8.23022610783 0)
(59.4420473004 8.23048540005 0)
(59.4428189077 8.23074960932 0)
(59.4435879303 8.23101865719 0)
(59.4443542165 8.23129247012 0)
(59.4451176167 8.23157097595 0)
(59.4458779823 8.23185410066 0)
(59.446635166 8.23214176606 0)
(59.4473890222 8.2324338887 0)
(59.448139407 8.23273037969 0)
(59.4488861799 8.23303114536 0)
(59.4496292038 8.2333360882 0)
(59.4503683458 8.2336451078 0)
(59.451103477 8.23395810133 0)
(59.4518344728 8.23427496359 0)
(59.4525612129 8.23459558648 0)
(59.4532835818 8.23491985821 0)
(59.4540014684 8.23524766237 0)
(59.4547147677 8.23557887721 0)
(59.4554233809 8.2359133752 0)
(59.4561272169 8.23625102287 0)
(59.4568261931 8.23659168102 0)
(59.4575202377 8.23693520524 0)
(59.4582092884 8.2372814464 0)
(59.4588932981 8.2376302518 0)
(59.4595722275 8.23798146559 0)
(59.4602460602 8.23833493073 0)
(59.4609147742 8.23869048751 0)
(59.4615783946 8.23904797786 0)
(59.462236889 8.23940723629 0)
(59.4628903637 8.23976810421 0)
(59.4635386802 8.24013039594 0)
(59.4641821918 8.24049395619 0)
(59.4648203207 8.24085853853 0)
(59.4654543087 8.24122403244 0)
(59.4660819104 8.2415900122 0)
(59.4667076533 8.24195661988 0)
(59.4673230437 8.24232279711 0)
(59.467944816 8.2426899486 0)
(59.4685406844 8.24305380059 0)
(59.4691748134 8.24342524706 0)
(59.4702009512 8.24407563279 0)
(59.4714956186 8.24512398314 0)
(59.4728946596 8.24622748943 0)
(59.4742420741 8.2474151856 0)
(59.4755915723 8.24867876812 0)
(59.4769103426 8.25001588726 0)
(59.4781987114 8.25141865026 0)
(59.479445464 8.25288597647 0)
(59.4806440019 8.2544186163 0)
(59.4817855834 8.25601628797 0)
(59.48286231 8.25767688141 0)
(59.4838663916 8.25939760448 0)
(59.4847908033 8.26117535663 0)
(59.4856292362 8.26300717559 0)
(59.4863765523 8.26489107756 0)
(59.4870283423 8.26682686439 0)
(59.4875806131 8.26881566814 0)
(59.4880281691 8.27085837524 0)
(59.4883651583 8.2729532293 0)
(59.4885848148 8.27509540033 0)
(59.4886836755 8.27727801221 0)
(59.4886600578 8.27949586133 0)
(59.4885180021 8.28174579358 0)
(59.4882586334 8.28402789702 0)
(59.4878882668 8.28634035052 0)
(59.4874044839 8.28868250177 0)
(59.4868179556 8.29104844354 0)
(59.4861239194 8.29343815625 0)
(59.4853446811 8.29584350886 0)
(59.4844679533 8.29827006563 0)
(59.4835328859 8.30070464883 0)
(59.4825068586 8.30316207491 0)
(59.4814593085 8.30561682613 0)
(59.4803182456 8.30810257267 0)
(59.4792109589 8.31056846037 0)
(59.477990339 8.31308629604 0)
(59.4768891805 8.31555266858 0)
(59.4756203358 8.31811543092 0)
(59.4746051959 8.32056426035 0)
(59.473308137 8.32319884326 0)
(59.4724762271 8.3255926887 0)
(59.4711600864 8.32834972671 0)
(59.4706269966 8.33060170518 0)
(59.4693238407 8.33357723566 0)
(59.4691875025 8.33546109269 0)
(59.468148515 8.33887357425 0)
(59.4682675091 8.3396499779 0)
(59.4688309255 8.34431064329 0)
(59.4179819171 8.36147587701 0)
(59.4214221964 8.37492765963 0)
(59.421447994 8.38240080029 0)
(59.4221208134 8.3884512721 0)
(59.4221260755 8.39414162506 0)
(59.4219264475 8.39936123816 0)
(59.4212034639 8.40400831464 0)
(59.4200946394 8.40805664695 0)
(59.4185280472 8.4113384448 0)
(59.4165455344 8.41369590154 0)
(59.4142176787 8.41517035329 0)
(59.41169342 8.41605930381 0)
(59.4091239469 8.41680005178 0)
(59.4066220771 8.41777396402 0)
(59.4042290496 8.4191438934 0)
(59.4019248675 8.42080874357 0)
(59.3996598321 8.42248428115 0)
(59.3973917981 8.42385403246 0)
(59.3951089527 8.42470959667 0)
(59.3928325019 8.42502108786 0)
(59.3906033352 8.42492283303 0)
(59.3884631499 8.42463934777 0)
(59.3864395668 8.42439465777 0)
(59.3845402623 8.42434278896 0)
(59.3827558884 8.42453833946 0)
(59.3810682099 8.42494581206 0)
(59.3794590597 8.42547331932 0)
(59.3779168444 8.42601280861 0)
(59.3764392144 8.42647284031 0)
(59.3750322271 8.42679704378 0)
(59.373707268 8.42696802831 0)
(59.3724772552 8.42700072199 0)
(59.3713532604 8.42693052092 0)
(59.3703422793 8.42680093697 0)
(59.3694461839 8.42665374913 0)
(59.3686618945 8.42652283283 0)
(59.3679820682 8.42643153641 0)
(59.3673965657 8.42639266467 0)
(59.366893354 8.42641006825 0)
(59.3664604243 8.42648078805 0)
(59.3660855637 8.42659734447 0)
(59.3657591582 8.42674951068 0)
(59.3654710191 8.42692603181 0)
(59.3652168483 8.42711539364 0)
(59.3649872683 8.42730724446 0)
(59.3647868436 8.42749196675 0)
(59.3645999821 8.42766279751 0)
(59.3644505316 8.42781310579 0)
(59.3643118379 8.42792677813 0)
(59.3641695999 8.42800779512 0)
(59.3640532119 8.42807563534 0)
(59.3639504108 8.42813023201 0)
(59.3638612098 8.42817190585 0)
(59.3637885761 8.42820153892 0)
(59.363732695 8.42822063247 0)
(59.3636942724 8.42823109674 0)
(59.3636738891 8.42823498128 0)
(59.3636717503 8.42823435339 0)
(59.3636878073 8.42823126701 0)
(59.363721718 8.42822771046 0)
(59.3637728575 8.42822559054 0)
(59.3638403631 8.42822682787 0)
(59.3639231775 8.42823345245 0)
(59.3640200849 8.42824750027 0)
(59.3641297345 8.42827067122 0)
(59.3642506638 8.42830392831 0)
(59.364381341 8.42834726683 0)
(59.3645202314 8.42839974755 0)
(59.3646658807 8.42845973018 0)
(59.3648169992 8.42852517482 0)
(59.3649725326 8.42859389879 0)
(59.365131709 8.42866373008 0)
(59.3652940617 8.4287325559 0)
(59.3654594294 8.42879831219 0)
(59.3656279428 8.42885898065 0)
(59.3658000013 8.42891263995 0)
(59.3659762452 8.42895757302 0)
(59.366157522 8.42899239345 0)
(59.3663448464 8.42901614654 0)
(59.366539355 8.42902835845 0)
(59.3667422566 8.42902903073 0)
(59.3669547811 8.4290185917 0)
(59.3671781321 8.42899781962 0)
(59.3674134433 8.42896775126 0)
(59.3676617433 8.42892958685 0)
(59.3679239296 8.42888459976 0)
(59.3682007519 8.42883405664 0)
(59.3684928055 8.4287791519 0)
(59.3688005341 8.42872096041 0)
(59.3691242402 8.42866041073 0)
(59.3694641008 8.42859827811 0)
(59.3698201883 8.42853519139 0)
(59.3701924923 8.42847164429 0)
(59.3705809412 8.42840800262 0)
(59.3709854218 8.42834450331 0)
(59.3714057957 8.42828124749 2.55841241655e-35)
(59.371841913 8.42821819418 -2.55841070929e-35)
(59.3722936222 8.42815516337 0)
(59.3727607787 8.42809185619 0)
(59.3732432516 8.42802789616 0)
(59.3737409289 8.42796288906 0)
(59.3742537213 8.42789649018 0)
(59.3747815633 8.42782846164 0)
(59.3753244109 8.42775870102 0)
(59.3758822352 8.42768723002 0)
(59.3764550146 8.42761414475 0)
(59.3770427258 8.42753954393 0)
(59.3776453355 8.42746345901 0)
(59.3782627971 8.42738581374 0)
(59.3788950526 8.42730641589 0)
(59.3795420335 8.42722503932 0)
(59.3802036694 8.42714142639 0)
(59.3808798939 8.42705538477 0)
(59.3815706475 8.4269668968 0)
(59.3822758801 8.42687609429 0)
(59.3829955452 8.42678323269 0)
(59.383729594 8.42668863246 0)
(59.3844779675 8.42659260993 0)
(59.3852405903 8.426495422 0)
(59.3860173674 8.42639723979 0)
(59.3868081838 8.42629815328 0)
(59.3876129067 8.42619819587 0)
(59.3884313889 8.42609737267 0)
(59.3892634719 8.42599567918 0)
(59.3901089885 8.42589310622 0)
(59.3909677644 8.42578963547 0)
(59.3918396194 8.42568523468 0)
(59.392724369 8.42557985968 0)
(59.393621825 8.42547346504 0)
(59.3945317971 8.42536601905 0)
(59.3954540925 8.42525751519 0)
(59.3963885164 8.42514797301 0)
(59.39733487 8.42503742519 0)
(59.3982929496 8.42492589375 0)
(59.3992625456 8.42481336348 0)
(59.4002434433 8.42469976339 0)
(59.401235425 8.4245849653 0)
(59.4022382734 8.42446880349 0)
(59.4032517749 8.42435111181 0)
(59.4042757219 8.42423176761 0)
(59.4053099124 8.42411072874 0)
(59.4063541479 8.42398805117 0)
(59.4074082287 8.42386388134 0)
(59.4084719487 8.4237384256 0)
(59.4095450908 8.42361190629 0)
(59.4106274245 8.42348451762 0)
(59.4117187056 8.42335639309 0)
(59.4128186779 8.42322759113 0)
(59.4139270768 8.42309809972 0)
(59.4150436331 8.42296785504 0)
(59.4161680757 8.42283676696 0)
(59.4173001342 8.42270474391 0)
(59.4184395395 8.4225717118 0)
(59.4195860239 8.42243762476 0)
(59.4207393197 8.42230246753 0)
(59.421899158 8.42216625157 0)
(59.4230652672 8.42202900738 0)
(59.4242373719 8.42189077548 0)
(59.4254151917 8.42175159842 0)
(59.4265984412 8.42161151501 0)
(59.4277868294 8.42147055746 0)
(59.4289800605 8.42132875137 0)
(59.4301778334 8.42118611772 0)
(59.4313798426 8.42104267566 0)
(59.4325857778 8.42089844493 0)
(59.4337953243 8.42075344691 0)
(59.4350081627 8.42060770403 0)
(59.4362239687 8.42046123763 0)
(59.4374424135 8.42031406502 0)
(59.4386631636 8.42016619628 0)
(59.439885881 8.42001763157 0)
(59.4411102243 8.41986835895 0)
(59.4423358489 8.41971835297 0)
(59.4435624078 8.41956757421 0)
(59.4447895537 8.41941597003 0)
(59.4460169377 8.41926347754 0)
(59.4472442155 8.41911002901 0)
(59.4484710367 8.41895556057 0)
(59.4496970656 8.41880002189 0)
(59.4509219385 8.41864338718 0)
(59.4521453394 8.41848566024 0)
(59.4533668438 8.41832687908 0)
(59.4545862102 8.41816710287 0)
(59.4558028017 8.41800641104 0)
(59.4570167008 8.41784486162 0)
(59.458226536 8.41768251779 0)
(59.4594337059 8.41751934757 0)
(59.4606341648 8.41735537991 0)
(59.4618344082 8.41719039833 0)
(59.4630203788 8.41702450655 0)
(59.464217986 8.41685722394 0)
(59.4653749272 8.41668858805 0)
(59.4676688427 8.41636764162 0)
(59.47121386 8.41589682464 0)
(59.4747106168 8.41539502152 0)
(59.4782875987 8.41486427011 0)
(59.4818852254 8.41430658043 0)
(59.4855159594 8.41372692744 0)
(59.4891629254 8.41312449069 0)
(59.4928168053 8.41249646934 0)
(59.4964635873 8.41184028205 0)
(59.5000891722 8.41115429254 0)
(59.5036777018 8.41043689926 0)
(59.5072120864 8.4096864005 0)
(59.5106738561 8.40890087214 0)
(59.5140432429 8.40807780432 0)
(59.5172996382 8.4072140905 0)
(59.520422181 8.40630704672 0)
(59.5233906605 8.40535608138 0)
(59.5261851137 8.40436321955 0)
(59.5287855882 8.40333124735 0)
(59.5311707944 8.40226031688 0)
(59.5333201172 8.40114670671 0)
(59.5352138278 8.39998494987 0)
(59.5368373676 8.39877221249 0)
(59.5381776825 8.39750936919 0)
(59.5392278789 8.39619998356 0)
(59.5399785142 8.39484585509 0)
(59.5404298703 8.39344799815 0)
(59.5405762615 8.3920045859 0)
(59.540430906 8.39051762967 0)
(59.5399908292 8.38898632664 0)
(59.53928465 8.38741742027 0)
(59.5383020529 8.38580779072 0)
(59.5370921569 8.38416791779 0)
(59.5356269375 8.38248657686 0)
(59.5339948634 8.38078315937 0)
(59.5321320697 8.37903284157 0)
(59.5301938388 8.37727535258 0)
(59.5280377372 8.37545874335 0)
(59.5259326975 8.37366155554 0)
(59.523583667 8.37177847147 0)
(59.521464793 8.36995990482 0)
(59.5189995821 8.36800596636 0)
(59.5170351408 8.366185876 0)
(59.5144778364 8.36416611615 0)
(59.5128589612 8.36233665931 0)
(59.5100952696 8.36031521777 0)
(59.5090741766 8.35839300885 0)
(59.5054288598 8.35574246079 0)
(59.4137176442 8.33940264827 0)
(59.4105949674 8.32681322589 0)
(59.4083853284 8.32083745603 0)
(59.4060467929 8.31716456292 0)
(59.4036871351 8.31384042517 0)
(59.4014190898 8.31072295903 0)
(59.3992409599 8.30794486926 0)
(59.3971666137 8.30540520302 0)
(59.3951456132 8.30288374503 0)
(59.3931497172 8.30027356921 0)
(59.3911354497 8.29765086991 0)
(59.3890927955 8.29524944705 0)
(59.3870353261 8.29335209175 0)
(59.3849966812 8.29215178978 0)
(59.3830035713 8.29164476567 0)
(59.3810593891 8.29161381338 0)
(59.379138778 8.29170809445 0)
(59.3771988232 8.29157665262 0)
(59.3751974141 8.29099096642 0)
(59.373110022 8.2899063782 0)
(59.3709374585 8.28844741384 0)
(59.3687033243 8.28683666917 0)
(59.3664442638 8.28530504518 0)
(59.3641982945 8.28401910207 0)
(59.3619957138 8.28304573734 0)
(59.3598548518 8.28235573657 0)
(59.3577825661 8.28185426608 0)
(59.35577783 8.28142138481 0)
(59.3538363299 8.28094798253 0)
(59.3519543763 8.28035875104 0)
(59.3501312377 8.27962036378 0)
(59.3483697505 8.278737723 0)
(59.3466756295 8.2777432226 0)
(59.3450560334 8.2766838785 0)
(59.343518053 8.27560982489 0)
(59.3420673834 8.27456597288 0)
(59.3407076359 8.27358719542 0)
(59.3394398948 8.27269651617 0)
(59.3382631524 8.27190540103 0)
(59.3371742525 8.27121529856 0)
(59.3361693003 8.27061971255 0)
(59.3352427913 8.27010645799 0)
(59.3343906398 8.26965972247 0)
(59.3336061773 8.26926207774 0)
(59.3328880892 8.26889598212 0)
(59.332227013 8.26854526368 0)
(59.3316294745 8.2681965307 0)
(59.3310753256 8.26783660267 0)
(59.3306561604 8.26751300794 0)
(59.3303575842 8.26722624859 0)
(59.3300649163 8.26691986372 0)
(59.3297927343 8.26659326104 0)
(59.3295419578 8.26624701673 0)
(59.3293114249 8.26588246734 0)
(59.3291024892 8.26550188961 0)
(59.3289157088 8.26510830831 0)
(59.3287515048 8.26470535515 0)
(59.3286102854 8.26429725547 0)
(59.3284922712 8.26388876804 0)
(59.3283975059 8.26348498108 0)
(59.3283258407 8.26309101992 0)
(59.3282769185 8.26271174976 0)
(59.3282501837 8.26235148329 0)
(59.3282449086 8.26201368102 0)
(59.3282602327 8.26170068584 0)
(59.3282952057 8.26141356896 0)
(59.3283488274 8.26115212394 0)
(59.3284200826 8.26091497851 0)
(59.3285079764 8.26069976358 0)
(59.32861157 8.26050329546 0)
(59.3287300202 8.26032175497 0)
(59.3288626167 8.2601508612 0)
(59.3290088158 8.25998604342 0)
(59.3291682646 8.25982262086 0)
(59.3293408143 8.25965600178 0)
(59.3295265218 8.25948190203 0)
(59.3297256413 8.25929656384 0)
(59.3299386073 8.25909694317 0)
(59.3301660113 8.25888083824 0)
(59.3304085737 8.25864694731 0)
(59.3306671123 8.25839485977 0)
(59.3309425099 8.25812499204 0)
(59.3312356799 8.25783848221 0)
(59.3315475354 8.25753705627 0)
(59.3318789595 8.25722287825 0)
(59.3322307807 8.256898395 0)
(59.3326037536 8.25656618535 0)
(59.3329985442 8.25622882153 0)
(59.333415723 8.25588875052 0)
(59.3338557619 8.2555482012 0)
(59.3343190378 8.25520912022 0)
(59.3348058407 8.25487313497 0)
(59.3353163845 8.25454153925 0)
(59.3358508208 8.25421529596 0)
(59.3364092526 8.25389505269 0)
(59.336991747 8.25358116768 0)
(59.3375983461 8.25327374463 0)
(59.3382290756 8.25297267524 0)
(59.3388839504 8.25267768933 0)
(59.3395629793 8.25238841258 0)
(59.3402661688 8.25210443118 0)
(59.3409935262 8.25182535889 0)
(59.3417450629 8.25155089747 0)
(59.3425207965 8.25128087793 0)
(59.3433207512 8.25101527225 0)
(59.3441449556 8.25075417175 0)
(59.3449934386 8.25049773884 0)
(59.3458662224 8.25024614684 0)
(59.3467633162 8.24999952707 0)
(59.3476847136 8.24975793858 0)
(59.3486303877 8.24952137117 0)
(59.3496002922 8.24928977669 0)
(59.3505943697 8.24906311944 0)
(59.351612558 8.24884143015 0)
(59.3526547942 8.24862484175 0)
(59.353721019 8.24841359756 0)
(59.354811176 8.24820802946 0)
(59.3559252079 8.24800851466 0)
(59.3570630505 8.24781542689 0)
(59.3582246268 8.24762909743 0)
(59.3594098439 8.24744979531 0)
(59.3606185909 8.24727772676 0)
(59.3618507405 8.2471130468 0)
(59.3631061504 8.24695587327 0)
(59.3643846659 8.24680629631 0)
(59.3656861204 8.2466643817 0)
(59.3670103368 8.2465301711 0)
(59.3683571272 8.24640368425 0)
(59.3697262947 8.24628492639 0)
(59.371117634 8.24617390076 0)
(59.3725309341 8.246070622 0)
(59.3739659787 8.24597512418 0)
(59.3754225471 8.24588745811 0)
(59.3769004128 8.24580767624 0)
(59.3783993411 8.24573580871 0)
(59.3799190867 8.24567183924 0)
(59.3814593923 8.24561569162 0)
(59.3830199883 8.24556723532 0)
(59.3846005955 8.24552631233 0)
(59.3862009279 8.24549277907 0)
(59.3878206973 8.24546655067 0)
(59.3894596163 8.24544763276 0)
(59.3911174003 8.2454361297 0)
(59.3927937667 8.2454322263 0)
(59.3944884332 8.24543614897 0)
(59.3962011139 8.24544811842 0)
(59.3979315167 8.2454683078 0)
(59.3996793402 8.24549681655 0)
(59.4014442723 8.24553366423 0)
(59.40322599 8.24557880223 0)
(59.4050241602 8.24563213665 0)
(59.4068384412 8.24569355476 0)
(59.4086684846 8.24576294815 0)
(59.4105139365 8.2458402287 0)
(59.4123744389 8.24592533616 0)
(59.4142496304 8.24601823828 0)
(59.4161391463 8.24611892562 0)
(59.4180426185 8.24622740349 0)
(59.4199596747 8.24634368334 0)
(59.4218899381 8.24646777535 0)
(59.4238330269 8.24659968355 0)
(59.4257885539 8.24673940365 0)
(59.4277561266 8.2468869235 0)
(59.4297353475 8.24704222514 0)
(59.4317258144 8.24720528709 0)
(59.4337271213 8.24737608592 0)
(59.4357388583 8.24755459628 0)
(59.4377606122 8.24774078933 0)
(59.4397919669 8.24793462998 0)
(59.4418325033 8.24813607359 0)
(59.4438817994 8.2483450624 0)
(59.4459394306 8.24856152222 0)
(59.4480049696 8.24878535923 0)
(59.4500779876 8.24901645755 0)
(59.4521580536 8.24925467841 0)
(59.454244738 8.24949986254 0)
(59.4563376087 8.24975183743 0)
(59.4584362422 8.25001043001 0)
(59.4605402054 8.25027548406 0)
(59.4626490946 8.2505468787 0)
(59.4647624605 8.25082454462 0)
(59.4668799549 8.25110847015 0)
(59.4690010438 8.25139869973 0)
(59.4711255611 8.25169531261 0)
(59.4732526328 8.25199840895 0)
(59.4753827552 8.25230806248 0)
(59.4775137693 8.25262434146 0)
(59.4796486514 8.25294721337 0)
(59.4817804223 8.25327672873 0)
(59.4839213676 8.25361263437 0)
(59.4860464602 8.25395536589 0)
(59.4882029222 8.25430365429 0)
(59.4921438642 8.25498138459 0)
(59.4978518554 8.25601095571 0)
(59.5037826471 8.2571216029 0)
(59.5098131943 8.25831674192 0)
(59.5159767714 8.25960338835 0)
(59.5222408963 8.26098227743 0)
(59.5285947803 8.26245374584 0)
(59.5350164316 8.26401922608 0)
(59.5414841904 8.26568047087 0)
(59.5479723172 8.26743765417 0)
(59.554452802 8.26928923742 0)
(59.5608947622 8.27123269023 0)
(59.5672648391 8.27326475931 0)
(59.5735271433 8.27538120397 0)
(59.5796437588 8.27757655094 0)
(59.5855750198 8.27984466392 0)
(59.5912805267 8.28218014301 0)
(59.5967190119 8.28457935237 0)
(59.6018491208 8.28703879049 0)
(59.606628119 8.28955149329 0)
(59.6110144518 8.29210437651 0)
(59.6149668763 8.29468073215 0)
(59.6184506539 8.29726482917 0)
(59.6214330232 8.29984613322 0)
(59.6238920322 8.30241661976 0)
(59.6258037543 8.30496900609 0)
(59.6271610107 8.30749141991 0)
(59.6279482128 8.3099733578 0)
(59.6281804534 8.31240181611 0)
(59.6278488882 8.31477419189 0)
(59.6269966835 8.31708227972 0)
(59.6256074098 8.31933306457 0)
(59.6237605526 8.32151185631 0)
(59.6214147011 8.32363258773 0)
(59.6187147865 8.32566535304 0)
(59.6155662092 8.32764725294 0)
(59.6122222056 8.32952455314 0)
(59.6084696794 8.3313828338 0)
(59.6047394062 8.33310998666 0)
(59.6005926563 8.33488293771 0)
(59.5967651315 8.3364585763 0)
(59.5924263787 8.33820422683 0)
(59.5888219453 8.33959201106 0)
(59.5844839704 8.34140639338 0)
(59.5814660994 8.34247459984 0)
(59.5773239445 8.34455637569 0)
(59.5753760236 8.34490270837 0)
(59.5715122944 8.34793903188 0)
(59.4172812718 8.35665732427 0)
(59.4199979673 8.36498577238 0)
(59.4202010936 8.37086518228 0)
(59.420876795 8.37642932505 0)
(59.4208414943 8.38153860354 0)
(59.4206621061 8.38602907168 0)
(59.4200804511 8.38997340178 0)
(59.4192587218 8.39343598328 0)
(59.4181269372 8.39629217039 0)
(59.416709095 8.39840557882 0)
(59.4150067442 8.39978157361 0)
(59.4130824612 8.40062610309 0)
(59.4110211083 8.40128087798 0)
(59.4089217543 8.40208795165 0)
(59.4068605969 8.40325148303 0)
(59.4048716449 8.40476778519 0)
(59.4029398264 8.40645106977 0)
(59.4010143766 8.40803210518 0)
(59.3990323123 8.40927570234 0)
(59.3969427219 8.41006461103 0)
(59.3947224258 8.41042274132 0)
(59.3923795011 8.41048194125 0)
(59.3899461714 8.4104179644 0)
(59.3874660609 8.41038629096 0)
(59.3849813203 8.41047996832 0)
(59.3825236043 8.41071737915 0)
(59.3801104384 8.41105529513 0)
(59.3777463839 8.41141583056 0)
(59.3754271766 8.41171530512 0)
(59.3731447888 8.41188649136 0)
(59.370891797 8.41189055587 0)
(59.3686642221 8.41171911724 0)
(59.3664626419 8.41138925794 0)
(59.364291961 8.41093500502 0)
(59.3621602469 8.41039828148 0)
(59.3600773428 8.40982125272 0)
(59.3580533309 8.40924093446 0)
(59.356097615 8.40868609424 0)
(59.3542178096 8.4081760885 0)
(59.3524199399 8.40772104233 0)
(59.3507073209 8.40732296037 0)
(59.3490823989 8.40697723342 0)
(59.3475440097 8.40667451509 0)
(59.3460928269 8.40640236823 0)
(59.344722773 8.40614728396 0)
(59.343436884 8.40589558769 0)
(59.342220348 8.40563608331 0)
(59.3410887468 8.40535717239 0)
(59.34013818 8.40509719609 0)
(59.3393340897 8.40485616863 0)
(59.33855903 8.40459195016 0)
(59.3378045471 8.40430424627 0)
(59.337069858 8.40399341554 0)
(59.3363565911 8.40366081427 0)
(59.3356645415 8.40330882682 0)
(59.3349939837 8.40294062816 0)
(59.3343453226 8.40255993543 0)
(59.3337189341 8.40217092813 0)
(59.3331152666 8.40177820849 0)
(59.332534815 8.40138667436 0)
(59.3319781041 8.40100136362 0)
(59.331445677 8.40062732755 0)
(59.3309380683 8.40026944592 0)
(59.330455772 8.39993207851 0)
(59.3299992115 8.39961860385 0)
(59.3295687143 8.39933102935 0)
(59.329164499 8.39906982569 0)
(59.3287866698 8.39883400029 0)
(59.3284352179 8.39862131968 0)
(59.3281100261 8.39842857562 0)
(59.3278108759 8.39825182804 0)
(59.3275374582 8.39808659988 0)
(59.3272893863 8.39792803152 0)
(59.3270662145 8.39777102618 0)
(59.3268674596 8.39761042399 0)
(59.3266926247 8.39744122247 0)
(59.3265412243 8.39725882654 0)
(59.3264128074 8.39705928645 0)
(59.3263069774 8.39683948234 0)
(59.3262234089 8.39659723304 0)
(59.3261618585 8.39633132804 0)
(59.3261221715 8.39604149297 0)
(59.3261042842 8.3957283028 0)
(59.3261082205 8.39539305649 0)
(59.326134086 8.39503762673 0)
(59.3261820584 8.39466429737 0)
(59.3262523756 8.3942755997 0)
(59.3263453226 8.39387415743 0)
(59.3264612182 8.39346254928 0)
(59.3266004014 8.39304319652 0)
(59.3267632192 8.39261827937 0)
(59.3269500159 8.39218968194 0)
(59.3271611244 8.39175896145 0)
(59.3273968588 8.39132733667 0)
(59.3276575097 8.39089569176 0)
(59.3279433408 8.39046459308 0)
(59.3282545873 8.39003431808 0)
(59.3285914559 8.38960489511 0)
(59.3289541256 8.38917615349 0)
(59.3293427504 8.38874778338 0)
(59.3297574616 8.38831940386 0)
(59.3301983718 8.38789063462 0)
(59.3306655784 8.38746116227 0)
(59.3311591673 8.38703078928 0)
(59.3316792158 8.38659945487 0)
(59.3322257941 8.38616722345 0)
(59.3327989658 8.38573424526 0)
(59.3333987877 8.38530070134 0)
(59.3340253069 8.38486675046 0)
(59.334678565 8.38443249218 0)
(59.3353585912 8.38399795804 0)
(59.3360653996 8.38356313023 0)
(59.3367990026 8.38312798269 0)
(59.3375594087 8.38269253149 0)
(59.3383466207 8.38225687723 0)
(59.3391606401 8.38182122664 0)
(59.340001467 8.38138588689 0)
(59.3408690983 8.38095123571 0)
(59.3417635255 8.38051767831 0)
(59.3426847317 8.38008560564 0)
(59.3436326903 8.37965536556 0)
(59.344607363 8.37922725147 0)
(59.3456087003 8.3788015059 0)
(59.3466366413 8.3783783314 0)
(59.347691114 8.37795790094 0)
(59.3487720353 8.3775403636 0)
(59.349879311 8.37712584546 0)
(59.3510128361 8.37671444943 0)
(59.3521724945 8.3763062583 0)
(59.3533581605 8.37590134342 0)
(59.3545696997 8.37549977778 0)
(59.3558069702 8.37510164866 0)
(59.3570698225 8.37470706382 0)
(59.3583580989 8.37431614625 0)
(59.359671632 8.37392901718 0)
(59.3610102422 8.37354577236 0)
(59.3623737357 8.37316646113 0)
(59.3637619036 8.3727910784 0)
(59.3651745229 8.37241957575 0)
(59.3666113583 8.37205189067 0)
(59.3680721663 8.37168798562 0)
(59.3695566989 8.37132788387 0)
(59.3710647063 8.37097169002 0)
(59.3725959392 8.37061958837 0)
(59.3741501478 8.37027182031 0)
(59.3757270809 8.36992864872 0)
(59.377326482 8.36959032066 0)
(59.3789480867 8.36925703888 0)
(59.3805916196 8.36892894777 0)
(59.3822567923 8.36860613477 0)
(59.3839433029 8.36828864305 0)
(59.3856508355 8.36797648995 0)
(59.3873790621 8.36766968552 0)
(59.3891276434 8.36736824727 0)
(59.3908962303 8.36707220949 0)
(59.3926844654 8.36678162701 0)
(59.3944919837 8.36649657451 0)
(59.3963184129 8.36621714262 0)
(59.3981633732 8.36594343227 0)
(59.4000264773 8.36567554874 0)
(59.4019073293 8.36541359635 0)
(59.4038055246 8.36515767467 0)
(59.4057206497 8.36490787658 0)
(59.4076522823 8.36466428804 0)
(59.4095999914 8.3644269888 0)
(59.4115633377 8.36419605342 0)
(59.4135418745 8.3639715518 0)
(59.4155351471 8.36375354887 0)
(59.4175426936 8.36354210326 0)
(59.4195640446 8.36333726528 0)
(59.4215987224 8.36313907409 0)
(59.4236462413 8.36294755443 0)
(59.4257061066 8.36276271269 0)
(59.4277778142 8.36258453304 0)
(59.4298608509 8.36241297436 0)
(59.4319546926 8.36224796976 0)
(59.4340588085 8.36208943026 0)
(59.4361726538 8.36193725401 0)
(59.4382956883 8.3617913401 0)
(59.4404273449 8.36165160614 0)
(59.4425670972 8.36151800228 0)
(59.444714337 8.36139052372 0)
(59.4468686187 8.3612692052 0)
(59.4490291911 8.36115412172 0)
(59.4511959088 8.36104534985 0)
(59.453367464 8.36094298771 0)
(59.4555448119 8.36084706252 0)
(59.4577245182 8.36075766709 0)
(59.459911658 8.36067470953 0)
(59.4620947666 8.36059831931 0)
(59.4642944674 8.36052853819 0)
(59.4664690293 8.36046418636 0)
(59.4706639144 8.36036473509 0)
(59.4770520357 8.36027199112 0)
(59.4835545586 8.36022623532 0)
(59.4902602867 8.36023682935 0)
(59.4971194792 8.3603117352 0)
(59.5041338965 8.36045895214 0)
(59.5112821636 8.36068122714 0)
(59.518546764 8.3609802079 0)