/*--------------------------------*- C++ -*----------------------------------*\
  =========                 |
  \\      /  F ield         | OpenFOAM: The Open Source CFD Toolbox
   \\    /   O peration     | Website:  https://openfoam.org
    \\  /    A nd           | Version:  6
     \\/     M anipulation  |
\*---------------------------------------------------------------------------*/
FoamFile
{
    version     2.0;
    format      ascii;
    class       volVectorField;
    location    "0.261799";
    object      U_0;
}
// * * * * * * * * * * * * * * * * * * * * * * * * * * * * * * * * * * * * * //

dimensions      [0 1 -1 0 0 0 0];

internalField   nonuniform List<vector> 
43264
(
(59.4127417567 8.33044329009 0)
(59.4083231786 8.30945468589 0)
(59.4059648149 8.29981609377 0)
(59.403017922 8.29462744776 0)
(59.3998101978 8.28941150281 0)
(59.396480387 8.28416225678 0)
(59.3931779666 8.27917758231 0)
(59.3899668798 8.27438841178 0)
(59.387015946 8.26956592416 0)
(59.3845744427 8.26480271499 0)
(59.3828178775 8.2604499954 0)
(59.3817574809 8.25691878348 0)
(59.3812087461 8.25446108478 0)
(59.3808653362 8.25305524093 0)
(59.3804158576 8.25241442648 0)
(59.37965794 8.25210520938 0)
(59.3785540212 8.25170834737 0)
(59.3772173419 8.25094943676 0)
(59.3758450864 8.24975338106 0)
(59.3746359964 8.24821911081 0)
(59.3737260869 8.24654308211 0)
(59.3731608156 8.24493189004 0)
(59.3729032755 8.24353666538 0)
(59.3728653676 8.24242423845 0)
(59.3729450743 8.24158260342 0)
(59.3730564593 8.2409476376 0)
(59.3731458743 8.24043574598 0)
(59.3731943782 8.2399707975 0)
(59.3732104745 8.23949978015 0)
(59.3732185124 8.23899703125 0)
(59.3732473042 8.23846021016 0)
(59.3733216584 8.23790219175 0)
(59.3734577889 8.23734248778 0)
(59.3736621068 8.23680042878 0)
(59.3739324761 8.23629102163 0)
(59.3742605236 8.23582328961 0)
(59.3746344628 8.23540051456 0)
(59.3750411506 8.23502141629 0)
(59.3754682667 8.23468183094 0)
(59.3759046132 8.23437601519 0)
(59.3763419904 8.23409802899 0)
(59.3767730469 8.23384202247 0)
(59.3771951208 8.2336033466 0)
(59.37760313 8.23337747322 0)
(59.3780011541 8.233162053 0)
(59.3783812584 8.23295326272 0)
(59.3787597551 8.2327521242 0)
(59.3791118217 8.23255160205 0)
(59.3794436167 8.23238675663 0)
(59.3797677335 8.23224781357 0)
(59.3800770011 8.23210371523 0)
(59.3803894295 8.23195533125 0)
(59.3807067774 8.23180294438 0)
(59.3810276976 8.23164718917 0)
(59.3813539585 8.23148856786 0)
(59.3816863205 8.23132724528 0)
(59.3820253533 8.23116311465 0)
(59.3823716476 8.23099609222 0)
(59.3827256197 8.23082640726 0)
(59.3830875354 8.23065473968 0)
(59.3834574936 8.23048225678 0)
(59.383835392 8.23031049813 0)
(59.3842209082 8.23014101096 0)
(59.3846135064 8.22997485343 0)
(59.3850124915 8.2298122767 0)
(59.3854170999 8.2296527986 0)
(59.3858265929 8.22949559414 0)
(59.3862403251 8.22933994099 0)
(59.3866577771 8.22918549427 0)
(59.3870785589 8.22903232165 0)
(59.387502402 8.22888075683 0)
(59.3879291497 8.22873117894 0)
(59.3883587581 8.22858382256 0)
(59.3887913052 8.22843869125 0)
(59.389227003 8.22829559434 0)
(59.3896662024 8.22815426778 0)
(59.3901093832 8.2280145082 0)
(59.3905571288 8.22787626075 0)
(59.3910100913 8.22773964099 0)
(59.3914689512 8.2276049063 0)
(59.3919343807 8.22747240468 0)
(59.3924070119 8.22734252212 0)
(59.3928874125 8.22721563957 0)
(59.3933760687 8.2270921032 0)
(59.3938733764 8.22697220913 0)
(59.3943796373 8.22685620081 0)
(59.3948950616 8.22674427551 0)
(59.3954197731 8.22663659618 0)
(59.3959538176 8.2265333063 0)
(59.3964971728 8.22643454558 0)
(59.3970497569 8.22634046318 0)
(59.3976114379 8.2262512232 0)
(59.3981820404 8.2261669981 0)
(59.3987613543 8.22608795003 0)
(59.3993491432 8.22601420533 0)
(59.399945156 8.22594583158 0)
(59.4005491393 8.22588282658 0)
(59.4011608509 8.22582512514 0)
(59.4017800705 8.22577262397 0)
(59.4024066075 8.22572521918 0)
(59.4030403021 8.22568284583 0)
(59.4036810202 8.22564550697 0)
(59.4043286431 8.22561328132 0)
(59.4049830549 8.2255863056 0)
(59.4056441314 8.22556473587 0)
(59.4063117337 8.22554870105 0)
(59.4069857103 8.22553826531 0)
(59.4076659034 8.22553341294 0)
(59.4083521615 8.22553406447 0)
(59.4090443492 8.22554010717 0)
(59.4097423517 8.2255514885 0)
(59.4104460709 8.22556818434 0)
(59.411155422 8.22559025002 0)
(59.4118703227 8.22561787646 0)
(59.4125906696 8.22565130877 0)
(59.4133163284 8.22569080384 0)
(59.4140471316 8.22573658356 0)
(59.4147828795 8.22578880128 0)
(59.4155233474 8.22584753159 0)
(59.4162682961 8.22591278201 0)
(59.4170174804 8.22598451812 0)
(59.4177706549 8.22606268999 0)
(59.4185275763 8.22614724993 0)
(59.419288004 8.22623815808 0)
(59.4200516994 8.22633537864 0)
(59.4208184267 8.2264388736 0)
(59.4215879537 8.2265485997 0)
(59.4223600532 8.22666451092 0)
(59.4231345032 8.22678656462 0)
(59.4239110862 8.22691472701 0)
(59.4246895871 8.22704897407 0)
(59.4254697905 8.22718928611 0)
(59.4262514798 8.22733563768 0)
(59.4270344376 8.22748798667 0)
(59.4278184491 8.22764626742 0)
(59.4286033065 8.22781039135 0)
(59.4293888142 8.22798025617 0)
(59.4301747923 8.2281557613 0)
(59.4309610768 8.22833682491 0)
(59.4317475165 8.22852339712 0)
(59.4325339659 8.22871546489 0)
(59.4333202776 8.22891304686 0)
(59.434106294 8.22911617971 0)
(59.4348918423 8.2293249001 0)
(59.4356767332 8.22953922737 0)
(59.4364607631 8.22975915159 0)
(59.4372437194 8.22998462909 0)
(59.4380253871 8.2302155856 0)
(59.4388055555 8.23045192468 0)
(59.4395840222 8.23069353845 0)
(59.4403605964 8.23094031749 0)
(59.4411350988 8.23119215821 0)
(59.4419073605 8.23144896645 0)
(59.4426772205 8.23171065791 0)
(59.4434445235 8.23197715612 0)
(59.4442091177 8.23224838906 0)
(59.4449708529 8.23252428552 0)
(59.4457295801 8.23280477208 0)
(59.4464851516 8.2330897709 0)
(59.4472374208 8.2333791988 0)
(59.4479862438 8.23367296729 0)
(59.4487314793 8.23397098322 0)
(59.4494729898 8.23427314983 0)
(59.4502106418 8.2345793676 0)
(59.4509443059 8.23488953474 0)
(59.4516738568 8.23520354704 0)
(59.4523991735 8.2355212974 0)
(59.4531201394 8.2358426749 0)
(59.4538366429 8.23616756401 0)
(59.4545485779 8.23649584379 0)
(59.455255845 8.23682738757 0)
(59.4559583524 8.23716206288 0)
(59.4566560168 8.23749973163 0)
(59.4573487658 8.23784025077 0)
(59.4580365367 8.23818347278 0)
(59.4587192819 8.23852924686 0)
(59.4593969617 8.23887741938 0)
(59.4600695588 8.23922783587 0)
(59.4607370506 8.23958033947 0)
(59.4613994607 8.23993477513 0)
(59.4620567553 8.24029098051 0)
(59.4627090383 8.24064879997 0)
(59.4633561695 8.24100805076 0)
(59.4639984973 8.24136857996 0)
(59.4646354463 8.24173014386 0)
(59.4652682457 8.24209263343 0)
(59.4658946679 8.24245562684 0)
(59.4665192029 8.24281926554 0)
(59.4671334211 8.24318250066 0)
(59.467753879 8.24354672661 0)
(59.4683488834 8.24390771406 0)
(59.4689810791 8.2442761274 0)
(59.4700066659 8.24492197447 0)
(59.4713036804 8.2459624951 0)
(59.4727032835 8.24705732043 0)
(59.4740519673 8.24823596292 0)
(59.4754025407 8.24948987854 0)
(59.4767223655 8.25081636434 0)
(59.478011802 8.25220772027 0)
(59.4792597137 8.25366316778 0)
(59.4804594902 8.2551835197 0)
(59.4816024018 8.25676840658 0)
(59.4826805741 8.25841567194 0)
(59.4836862483 8.26012252838 0)
(59.484612427 8.26188589021 0)
(59.4854528317 8.26370282964 0)
(59.4862023498 8.26557143532 0)
(59.4868565775 8.26749159663 0)
(59.4874114859 8.2694644974 0)
(59.4878618118 8.27149099751 0)
(59.488201636 8.27356924848 0)
(59.488424187 8.27569433105 0)
(59.488526055 8.27785936358 0)
(59.4885056393 8.2800592254 0)
(59.4883669937 8.28229087504 0)
(59.4881112087 8.2845544542 0)
(59.4877445041 8.28684813761 0)
(59.48726444 8.28917122908 0)
(59.4866816443 8.29151782232 0)
(59.4859914189 8.29388790036 0)
(59.4852159967 8.29627339098 0)
(59.4843431644 8.29867984583 0)
(59.4834119009 8.3010941512 0)
(59.4823897328 8.30353105886 0)
(59.4813458285 8.30596516082 0)
(59.4802085089 8.30842999713 0)
(59.4791046155 8.31087491267 0)
(59.4778875949 8.31337145312 0)
(59.4767894711 8.31581656431 0)
(59.4755240488 8.31835760717 0)
(59.4745114346 8.32078490456 0)
(59.4732175926 8.32339724613 0)
(59.472387517 8.32576929303 0)
(59.4710743798 8.32850337748 0)
(59.4705422266 8.33073327569 0)
(59.4692418441 8.33368481811 0)
(59.4691053403 8.33554624172 0)
(59.4680687326 8.33893333386 0)
(59.4681862977 8.3396864138 0)
(59.4687510101 8.34431772023 0)
(59.4179592941 8.3612867903 0)
(59.4213625881 8.37453278239 0)
(59.4214239197 8.38194435699 0)
(59.4221282493 8.38802291562 0)
(59.4221555937 8.39374174529 0)
(59.421965855 8.39897497234 0)
(59.4212500877 8.40363113631 0)
(59.4201445316 8.40768326286 0)
(59.4185772961 8.41095879016 0)
(59.4165912015 8.41330196397 0)
(59.4142598216 8.41476271847 0)
(59.4117343143 8.41564758209 0)
(59.4091665543 8.41639769968 0)
(59.4066682768 8.41739084308 0)
(59.4042788317 8.41878081419 0)
(59.4019766254 8.42045681546 0)
(59.3997114298 8.42212905755 0)
(59.3974416787 8.42348193716 0)
(59.3951567279 8.42431335007 0)
(59.3928788436 8.42460187007 0)
(59.3906493815 8.424488813 0)
(59.3885098113 8.42420184215 0)
(59.3864870667 8.42396386948 0)
(59.3845880597 8.42392476963 0)
(59.3828029311 8.42413394118 0)
(59.3811133496 8.42455147767 0)
(59.3795014451 8.42508297767 0)
(59.3779561634 8.42561999929 0)
(59.3764757446 8.42607239115 0)
(59.3750667226 8.42638597401 0)
(59.3737407533 8.42654567934 0)
(59.3725107969 8.42656832922 0)
(59.3713877751 8.4264905124 0)
(59.3703784063 8.4263562109 0)
(59.3694842297 8.42620709326 0)
(59.3687018371 8.42607655296 0)
(59.3680236068 8.42598728626 0)
(59.3674391922 8.42595142878 0)
(59.3669364372 8.42597223714 0)
(59.366503286 8.42604627476 0)
(59.3661275537 8.4261657064 0)
(59.3657997004 8.42632006146 0)
(59.3655096661 8.42649793487 0)
(59.3652532758 8.42668774444 0)
(59.3650213299 8.42687913689 0)
(59.3648184836 8.42706255615 0)
(59.3646293787 8.42723134523 0)
(59.3644776566 8.42737902885 0)
(59.3643376799 8.42749023449 0)
(59.3641951279 8.4275690642 0)
(59.3640783161 8.42763438741 0)
(59.3639752048 8.42768648756 0)
(59.3638858409 8.42772576284 0)
(59.3638131548 8.4277531817 0)
(59.3637573189 8.42777034018 0)
(59.3637190122 8.42777919493 0)
(59.3636987779 8.42778180824 0)
(59.3636967781 8.42778025326 0)
(59.3637129182 8.4277765857 0)
(59.3637468109 8.42777278624 0)
(59.363797791 8.42777075693 0)
(59.3638649621 8.42777243128 0)
(59.3639472399 8.4277798559 0)
(59.3640433865 8.42779504777 0)
(59.364152032 8.42781962378 0)
(59.3642716997 8.42785440941 0)
(59.364400852 8.42789924596 0)
(59.3645379603 8.4279530631 0)
(59.3646815899 8.42801413305 0)
(59.3648304833 8.42808037212 0)
(59.3649836273 8.42814958463 0)
(59.3651402966 8.4282195994 0)
(59.3653000725 8.4282883055 0)
(59.3654628409 8.4283536384 0)
(59.3656287763 8.42841358317 0)
(59.3657983185 8.42846623579 0)
(59.3659721432 8.42850991688 0)
(59.3661511276 8.42854329731 0)
(59.36633631 8.4285654924 0)
(59.3665288428 8.42857610212 0)
(59.3667299429 8.42857519787 0)
(59.3669408412 8.42856326846 0)
(59.3671627347 8.42854114009 0)
(59.3673967447 8.42850988362 0)
(59.367643883 8.4284707195 0)
(59.3679050266 8.42842492853 0)
(59.3681809033 8.42837377374 0)
(59.3684720864 8.42831843724 0)
(59.3687789983 8.42825997567 0)
(59.3691019224 8.42819929659 0)
(59.3694410197 8.42813715409 0)
(59.3697963499 8.42807415703 0)
(59.3701678928 8.4280107803 0)
(59.3705555708 8.4279473709 0)
(59.3709592671 8.42788414583 0)
(59.3713788423 8.42782118476 2.58976771106e-35)
(59.3718141468 8.42775842464 -2.58976598613e-35)
(59.3722650313 8.42769566497 0)
(59.3727313541 8.42763259108 0)
(59.3732129882 8.42756881876 0)
(59.3737098261 8.42750395617 0)
(59.3742217837 8.42743767109 0)
(59.3747488001 8.42736974506 0)
(59.3752908353 8.42730009642 0)
(59.3758478637 8.42722876254 0)
(59.3764198651 8.4271558452 0)
(59.3770068166 8.42708143717 0)
(59.3776086841 8.42700555498 0)
(59.3782254207 8.42692810416 0)
(59.3788569676 8.42684887814 0)
(59.3795032561 8.42676764572 0)
(59.3801642175 8.42668415684 0)
(59.3808397872 8.42659823747 0)
(59.3815299081 8.42650989351 0)
(59.3822345324 8.42641927921 0)
(59.3829536151 8.426326665 0)
(59.3836871073 8.4262323756 0)
(59.3844349493 8.4261367215 0)
(59.3851970639 8.42603994742 0)
(59.3859733542 8.42594221105 0)
(59.3867637036 8.42584359179 0)
(59.387567978 8.42574411713 0)
(59.3883860293 8.42564379012 0)
(59.3892176988 8.42554260591 0)
(59.3900628192 8.42544055463 0)
(59.3909212161 8.42533761621 0)
(59.3917927099 8.42523375624 0)
(59.3926771162 8.42512892941 0)
(59.3935742475 8.4250230913 0)
(59.3944839138 8.42491621353 0)
(59.3954059233 8.42480829395 0)
(59.3963400814 8.42469935555 0)
(59.3972861894 8.42458943133 0)
(59.3982440437 8.42447853943 0)
(59.3992134345 8.42436665696 0)
(59.4001941472 8.42425370352 0)
(59.4011859647 8.42413954302 0)
(59.4021886706 8.42402400648 0)
(59.4032020528 8.42390693117 0)
(59.4042259051 8.42378820459 0)
(59.4052600269 8.42366779918 0)
(59.4063042204 8.42354578632 0)
(59.4073582857 8.42342232462 0)
(59.4084220159 8.42329762644 0)
(59.4094951924 8.42317191292 0)
(59.4105775831 8.42304537088 0)
(59.4116689423 8.42291812273 0)
(59.4127690129 8.42279021522 0)
(59.4138775298 8.42266162671 0)
(59.4149942236 8.42253228744 0)
(59.4161188239 8.42240210545 0)
(59.4172510608 8.42227099077 0)
(59.4183906659 8.42213887327 0)
(59.4195373719 8.42200571191 0)
(59.4206909114 8.42187149609 0)
(59.4218510156 8.42173624094 0)
(59.4230174128 8.42159997923 0)
(59.4241898271 8.42146275247 0)
(59.4253679779 8.42132460311 0)
(59.4265515793 8.4211855692 0)
(59.4277403401 8.42104568206 0)
(59.4289339638 8.42090496659 0)
(59.4301321495 8.42076344352 0)
(59.4313345913 8.42062113221 0)
(59.4325409789 8.42047805289 0)
(59.4337509975 8.42033422752 0)
(59.4349643277 8.42018967887 0)
(59.4361806453 8.42004442824 0)
(59.4373996215 8.4198984924 0)
(59.4386209232 8.41975188045 0)
(59.439844213 8.41960459119 0)
(59.44106915 8.41945661108 0)
(59.4422953906 8.41930791294 0)
(59.4435225889 8.41915845561 0)
(59.4447503994 8.41900818505 0)
(59.445978475 8.41885703763 0)
(59.4472064733 8.41870494606 0)
(59.4484340466 8.41855184844 0)
(59.4496608613 8.41839769816 0)
(59.450886556 8.41824247466 0)
(59.4521108162 8.41808618778 0)
(59.4533332194 8.41792888123 0)
(59.4545535241 8.41777061843 0)
(59.455771096 8.41761148056 0)
(59.4569860146 8.41745152459 0)
(59.458196917 8.41729080977 0)
(59.4594051875 8.41712929918 0)
(59.4606068131 8.41696701515 0)
(59.4618082328 8.41680373741 0)
(59.4629955002 8.41663956548 0)
(59.4641942786 8.41647402873 0)
(59.4653530182 8.41630712372 0)
(59.467647829 8.41598932758 0)
(59.4711920772 8.41552288678 0)
(59.4746895458 8.41502566882 0)
(59.478267209 8.4144996947 0)
(59.4818658928 8.41394726259 0)
(59.4854978283 8.41337320512 0)
(59.4891460949 8.41277647708 0)
(59.4928012931 8.41215423183 0)
(59.4964493824 8.41150395752 0)
(59.5000762246 8.41082405593 0)
(59.5036659225 8.4101129284 0)
(59.5072013478 8.40936887543 0)
(59.5106639935 8.40858996812 0)
(59.5140340585 8.40777367478 0)
(59.5172909183 8.40691687502 0)
(59.5204137201 8.40601691701 0)
(59.5233822698 8.40507328744 0)
(59.5261766026 8.40408807244 0)
(59.5287767283 8.40306402221 0)
(59.5311613161 8.40200115733 0)
(59.5333097457 8.40089563336 0)
(59.5352023447 8.39974197759 0)
(59.5368246223 8.39853745463 0)
(59.5381635792 8.39728303357 0)
(59.5392123219 8.39598227496 0)
(59.5399614268 8.39463690504 0)
(59.5404111846 8.39324786059 0)
(59.5405559939 8.39181330262 0)
(59.5404090901 8.39033525595 0)
(59.5399675779 8.38881295789 0)
(59.5392599949 8.38725313264 0)
(59.5382761041 8.38565266649 0)
(59.5370648956 8.38402196865 0)
(59.5355985562 8.382349853 0)
(59.5339653723 8.3806556271 0)
(59.5321018235 8.37891458398 0)
(59.5301627974 8.37716630875 0)
(59.5280063751 8.37535906458 0)
(59.5259007847 8.37357112182 0)
(59.5235518304 8.37169753627 0)
(59.5214325112 8.36988825566 0)
(59.5189677333 8.36794401653 0)
(59.517002787 8.36613331334 0)
(59.5144462009 8.36412354486 0)
(59.5128266237 8.36230379098 0)
(59.5100636634 8.36029261999 0)
(59.5090420284 8.35838127422 0)
(59.5053961055 8.35574122686 0)
(59.4137470532 8.33957184859 0)
(59.4106460576 8.32722336294 0)
(59.4084303247 8.32134142174 0)
(59.4060785336 8.31766151844 0)
(59.4037128009 8.31430497612 0)
(59.4014444999 8.31116843489 0)
(59.399268602 8.30837963181 0)
(59.3971974056 8.30582585917 0)
(59.3951802079 8.30328594258 0)
(59.393188171 8.30065913231 0)
(59.3911778863 8.29802905035 0)
(59.3891397911 8.29563432059 0)
(59.3870880164 8.29375741322 0)
(59.3850561632 8.2925851389 0)
(59.3830701521 8.29210390786 0)
(59.3811320829 8.29208729592 0)
(59.3792154005 8.29217984434 0)
(59.3772766147 8.29203231239 0)
(59.3752738809 8.29142308144 0)
(59.3731836089 8.29031641484 0)
(59.3710078038 8.28884424854 0)
(59.3687710726 8.28723269545 0)
(59.3665105945 8.28571175117 0)
(59.3642643962 8.28444376282 0)
(59.3620623949 8.28349007434 0)
(59.3599223791 8.28281650405 0)
(59.3578507175 8.28232510181 0)
(59.3558460847 8.28189505452 0)
(59.353904098 8.28141828819 0)
(59.3520211886 8.28082169715 0)
(59.3501968546 8.28007451116 0)
(59.3484341832 8.2791838982 0)
(59.3467390927 8.27818385575 0)
(59.345118861 8.27712223429 0)
(59.3435806064 8.27604931735 0)
(59.342129975 8.27500966168 0)
(59.3407704783 8.27403748339 0)
(59.3395030822 8.27315501889 0)
(59.3383266636 8.27237293989 0)
(59.3372379776 8.27169197014 0)
(59.3362330678 8.27110499926 0)
(59.3353064127 8.27059935795 0)
(59.3344539241 8.27015888754 0)
(59.3336689831 8.2697659526 0)
(59.3329502892 8.26940294045 0)
(59.3322885873 8.26905373504 0)
(59.3316903598 8.26870510902 0)
(59.331135681 8.26834414799 0)
(59.3307158168 8.26801901807 0)
(59.3304163194 8.26773043813 0)
(59.3301229073 8.26742197073 0)
(59.3298500547 8.26709327796 0)
(59.3295986667 8.26674505142 0)
(59.3293675883 8.26637876702 0)
(59.3291581576 8.26599683969 0)
(59.3289709184 8.26560239677 0)
(59.3288062745 8.26519916147 0)
(59.3286646122 8.26479145181 0)
(59.3285461269 8.26438410171 0)
(59.3284508342 8.26398223357 0)
(59.3283785555 8.26359095867 0)
(59.3283289039 8.2632150817 0)
(59.3283012975 8.26285880742 0)
(59.3282949876 8.26252544065 0)
(59.3283090997 8.26221713248 0)
(59.3283426766 8.26193474932 0)
(59.3283947165 8.2616778905 0)
(59.3284642087 8.26144501423 0)
(59.3285501674 8.26123361052 0)
(59.3286516688 8.26104038261 0)
(59.3287678899 8.26086142445 0)
(59.3288981459 8.26069239372 0)
(59.3290419222 8.26052868427 0)
(59.3291988973 8.26036560861 0)
(59.3293689545 8.26019860098 0)
(59.3295521816 8.26002343838 0)
(59.3297488614 8.2598364572 0)
(59.3299594534 8.25963473322 0)
(59.3301845699 8.25941619927 0)
(59.3304249473 8.25917969198 0)
(59.3306814147 8.25892493311 0)
(59.3309548607 8.25865245824 0)
(59.3312462001 8.25836350601 0)
(59.3315563426 8.25805988108 0)
(59.3318861641 8.25774380267 0)
(59.3322364833 8.25741774934 0)
(59.3326080421 8.25708430944 0)
(59.3330014934 8.25674604499 0)
(59.3334173934 8.25640537658 0)
(59.3338562007 8.25606449473 0)
(59.33431828 8.25572530006 0)
(59.3348039106 8.25538937012 0)
(59.3353132982 8.25505794791 0)
(59.335846588 8.25473194687 0)
(59.336403879 8.25441196815 0)
(59.3369852361 8.25409832817 0)
(59.3375907007 8.25379109468 0)
(59.3382202987 8.25349013073 0)
(59.338874046 8.25319514588 0)
(59.339551953 8.25290575523 0)
(59.3402540282 8.2526215448 0)
(59.3409802814 8.25234213832 0)
(59.3417307268 8.2520672555 0)
(59.3425053849 8.25179674941 0)
(59.3433042827 8.25153061297 0)
(59.3441274509 8.25126895254 0)
(59.3449749199 8.25101193667 0)
(59.3458467117 8.25075973567 0)
(59.3467428358 8.25051247152 0)
(59.3476632844 8.25027019205 0)
(59.3486080285 8.25003287905 0)
(59.3495770218 8.24980048334 0)
(59.3505702071 8.2495729768 0)
(59.3515875234 8.24935040476 0)
(59.35262891 8.24913291808 0)
(59.35369431 8.24892077654 0)
(59.3547836687 8.24871432285 0)
(59.3558969299 8.24851393743 0)
(59.357034029 8.24831999021 0)
(59.3581948886 8.24813280422 0)
(59.3593794144 8.24795263904 0)
(59.3605874944 8.24777969281 0)
(59.3618190003 8.24761411479 0)
(59.3630737894 8.24745601901 0)
(59.3643517064 8.2473054928 0)
(59.3656525847 8.24716259918 0)
(59.3669762468 8.24702737717 0)
(59.3683225048 8.24689984452 0)
(59.3696911615 8.24678000615 0)
(59.371082012 8.24666786709 0)
(59.3724948457 8.24656344558 0)
(59.3739294467 8.24646677972 0)
(59.3753855949 8.24637792293 0)
(59.3768630637 8.24629692701 0)
(59.3783616179 8.24622381749 0)
(59.3798810116 8.24615857043 0)
(59.3814209864 8.24610110134 0)
(59.382981272 8.24605127415 0)
(59.3845615885 8.24600893099 0)
(59.3861616502 8.24597393557 0)
(59.3877811695 8.24594621644 0)
(59.3894198601 8.24592579574 0)
(59.3910774383 8.24591279329 0)
(59.3927536223 8.24590740446 0)
(59.39444813 8.24590985903 0)
(59.3961606755 8.24592037384 0)
(59.3978909659 8.24593911281 0)
(59.3996386984 8.24596616384 0)
(59.4014035599 8.24600153575 0)
(59.403185226 8.24604517222 0)
(59.4049833625 8.2460969758 0)
(59.4067976269 8.24615683422 0)
(59.4086276698 8.24622464253 0)
(59.4104731368 8.2463003178 0)
(59.4123336695 8.2463838054 0)
(59.4142089059 8.24647507813 0)
(59.4160984807 8.24657413045 0)
(59.4180020252 8.24668097016 0)
(59.4199191662 8.24679560992 0)
(59.4218495261 8.24691806016 0)
(59.4237927217 8.24704832459 0)
(59.4257483649 8.24718639851 0)
(59.4277160619 8.24733226959 0)
(59.429695414 8.24748591999 0)
(59.431686018 8.24764732866 0)
(59.4336874665 8.24781647268 0)
(59.4356993485 8.24799332699 0)
(59.4377212497 8.24817786261 0)
(59.4397527527 8.24837004379 0)
(59.441793437 8.24856982455 0)
(59.4438428793 8.24877714521 0)
(59.4459006537 8.24899192905 0)
(59.4479663312 8.24921407918 0)
(59.4500394816 8.24944347627 0)
(59.4521196725 8.24967997807 0)
(59.4542064727 8.24992342245 0)
(59.4562994489 8.25017363551 0)
(59.4583981765 8.250430445 0)
(59.460502221 8.25069369835 0)
(59.4626111775 8.25096328095 0)
(59.4647245954 8.25123913144 0)
(59.4668421247 8.25152124619 0)
(59.4689632307 8.25180967575 0)
(59.4710877434 8.25210450193 0)
(59.4732147901 8.25240582301 0)
(59.4753448582 8.25271370686 0)
(59.4774757992 8.25302821282 0)
(59.4796105612 8.25334929965 0)
(59.4817422111 8.25367700879 0)
(59.4838829403 8.25401108369 0)
(59.4860078905 8.25435196136 0)
(59.4881638935 8.25469833752 0)
(59.4921054038 8.25537244108 0)
(59.4978155335 8.2563971997 0)
(59.5037474493 8.25750300853 0)
(59.5097790381 8.25869349496 0)
(59.5159431969 8.25997550737 0)
(59.5222075754 8.26134957461 0)
(59.5285613288 8.26281604943 0)
(59.5349824557 8.26437645918 0)
(59.5414492502 8.26603254641 0)
(59.5479359434 8.26778440915 0)
(59.5544144979 8.26963046355 0)
(59.5608540077 8.27156817472 0)
(59.5672210929 8.27359428866 0)
(59.5734798509 8.27570455142 0)
(59.5795923643 8.27789347991 0)
(59.5855189841 8.28015496451 0)
(59.5912193378 8.28248368144 0)
(59.5966521839 8.28487606583 0)
(59.6017761755 8.28732858638 0)
(59.6065485889 8.28983412235 0)
(59.6109279056 8.29237942063 0)
(59.6148729851 8.29494774063 0)
(59.6183492176 8.29752348075 0)
(59.6213239929 8.30009626186 0)
(59.6237754544 8.30265811257 0)
(59.6256797936 8.30520167955 0)
(59.6270299002 8.30771501107 0)
(59.6278103565 8.31018758114 0)
(59.628036316 8.31260647158 0)
(59.6276991103 8.31496916223 0)
(59.6268418159 8.31726753332 0)
(59.6254481676 8.31950851505 0)
(59.6235974509 8.3216774098 0)
(59.6212486121 8.32378802892 0)
(59.6185462663 8.32581058172 0)
(59.6153963779 8.32778206777 0)
(59.6120514863 8.32964900879 0)
(59.6082993339 8.33149672104 0)
(59.6045694579 8.33321349341 0)
(59.6004245497 8.33497569179 0)
(59.596598299 8.33654094878 0)
(59.5922626222 8.33827552522 0)
(59.5886598466 8.3396529792 0)
(59.5843259587 8.34145570474 0)
(59.5813095481 8.34251379789 0)
(59.577172309 8.34458279109 0)
(59.5752249822 8.34491962747 0)
(59.5713666943 8.34794010663 0)
(59.4172684594 8.35659251971 0)
(59.4199632579 8.36483286721 0)
(59.4201945452 8.37071233546 0)
(59.4208887556 8.37630464096 0)
(59.4208695413 8.38142386495 0)
(59.4206996687 8.38591652188 0)
(59.4201264643 8.38986559261 0)
(59.4193099823 8.39333004157 0)
(59.4181805828 8.39617963586 0)
(59.4167623997 8.39827955051 0)
(59.4150588373 8.39964209859 0)
(59.4131343297 8.40048099056 0)
(59.4110752549 8.40114243985 0)
(59.4089809511 8.40196729724 0)
(59.4069266009 8.4031533061 0)
(59.4049442976 8.40468828302 0)
(59.4030169825 8.40637984321 0)
(59.4010926 8.40795678068 0)
(59.399107992 8.40918688884 0)
(59.3970131214 8.40995903072 0)
(59.394786293 8.41030355722 0)
(59.3924371036 8.41035666574 0)
(59.3899988618 8.41029521374 0)
(59.3875156167 8.4102727943 0)
(59.385029319 8.41037879434 0)
(59.3825710127 8.41062766351 0)
(59.3801574788 8.41097317287 0)
(59.3777926392 8.41133597987 0)
(59.3754718372 8.41163250245 0)
(59.3731869379 8.41179676216 0)
(59.3709306505 8.41179175167 0)
(59.3686992822 8.41161095703 0)
(59.3664937542 8.41127299242 0)
(59.3643192953 8.41081289504 0)
(59.3621842277 8.41027305234 0)
(59.360098559 8.40969562901 0)
(59.3580724472 8.40911730193 0)
(59.3561152964 8.40856629274 0)
(59.3542346685 8.40806131593 0)
(59.3524364989 8.40761184331 0)
(59.3507240005 8.40721927349 0)
(59.3490995058 8.40687847996 0)
(59.3475617556 8.40657971238 0)
(59.3461113182 8.40631026193 0)
(59.3447420651 8.40605648167 0)
(59.343456931 8.40580469624 0)
(59.3422411401 8.40554382525 0)
(59.3411101138 8.40526248313 0)
(59.3401601369 8.40499984777 0)
(59.3393567197 8.40475618647 0)
(59.3385822048 8.4044890723 0)
(59.3378282186 8.40419849555 0)
(59.337093988 8.40388493928 0)
(59.3363811382 8.40354991749 0)
(59.3356894775 8.40319596558 0)
(59.3350192895 8.40282635506 0)
(59.3343709883 8.40244487086 0)
(59.3337449594 8.40205575703 0)
(59.3331416608 8.40166366963 0)
(59.3325615961 8.40127353508 0)
(59.3320052975 8.40089039686 0)
(59.3314733126 8.40051929158 0)
(59.3309661765 8.40016504617 0)
(59.3304843793 8.39983190251 0)
(59.3300283357 8.39952305024 0)
(59.3295983621 8.39924026271 0)
(59.329194664 8.39898377203 0)
(59.3288173325 8.39875237489 0)
(59.3284663456 8.39854366893 0)
(59.3281415734 8.39835431845 0)
(59.3278427857 8.39818029013 0)
(59.3275696628 8.39801704005 0)
(59.3273218092 8.39785966361 0)
(59.3270987729 8.39770304258 0)
(59.3269000672 8.39754202571 0)
(59.3267251949 8.39737165607 0)
(59.3265736735 8.39718742273 0)
(59.3264450577 8.39698549307 0)
(59.3263389595 8.39676288642 0)
(59.3262550635 8.39651757051 0)
(59.3261931379 8.39624848209 0)
(59.3261530404 8.39595548342 0)
(59.326134719 8.39563926873 0)
(59.3261382096 8.39530123415 0)
(59.3261636285 8.39494332487 0)
(59.3262111625 8.39456787175 0)
(59.3262810574 8.39417742838 0)
(59.3263736043 8.39377461833 0)
(59.3264891262 8.39336200114 0)
(59.3266279649 8.39294196422 0)
(59.3267904685 8.39251664389 0)
(59.3269769816 8.39208787443 0)
(59.3271878359 8.39165716058 0)
(59.3274233439 8.39122566863 0)
(59.3276837939 8.39079423214 0)
(59.327969447 8.39036337078 0)
(59.3282805358 8.3899333208 0)
(59.3286172644 8.38950407647 0)
(59.3289798096 8.3890754417 0)
(59.3293683233 8.38864709124 0)
(59.3297829355 8.38821863981 0)
(59.3302237576 8.38778971367 0)
(59.3306908867 8.38736001509 0)
(59.3311844089 8.38692936759 0)
(59.3317044017 8.3864977319 0)
(59.3322509357 8.38606518941 0)
(59.332824075 8.38563189936 0)
(59.3334238765 8.38519804282 0)
(59.3340503881 8.38476377134 0)
(59.3347036512 8.38432917375 0)
(59.3353836939 8.38389427197 0)
(59.336090531 8.38345904374 0)
(59.3368241753 8.38302346638 0)
(59.3375846358 8.38258756684 0)
(59.338371917 8.38215146186 0)
(59.3391860216 8.38171537543 0)
(59.3400269509 8.38127962879 0)
(59.3408947024 8.38084460755 0)
(59.3417892679 8.38041071781 0)
(59.3427106306 8.37997834574 0)
(59.3436587631 8.37954783144 0)
(59.3446336272 8.37911946031 0)
(59.3456351725 8.3786934684 0)
(59.3466633379 8.37827005368 0)
(59.347718051 8.37784938596 0)
(59.3487992282 8.37743161158 0)
(59.3499067751 8.3770168538 0)
(59.3510405859 8.37660521286 0)
(59.3522005445 8.37619676977 0)
(59.3533865248 8.37579159593 0)
(59.3545983925 8.37538976646 0)
(59.3558360055 8.37499137242 0)
(59.3570992144 8.37459652545 0)
(59.3583878612 8.37420535058 0)
(59.3597017778 8.37381796768 0)
(59.3610407836 8.37343446746 0)
(59.3624046834 8.37305489181 0)
(59.3637932672 8.3726792285 0)
(59.3652063106 8.37230742534 0)
(59.366643578 8.37193942172 0)
(59.3681048257 8.37157518817 0)
(59.3695898061 8.37121476052 0)
(59.3710982703 8.37085825727 0)
(59.3726299698 8.37050587441 0)
(59.3741846555 8.37015786005 0)
(59.3757620763 8.36981447773 0)
(59.3773619754 8.36947596996 0)
(59.3789840876 8.36914253167 0)
(59.3806281361 8.36881429874 0)
(59.3822938312 8.36849135148 0)
(59.3839808693 8.36817372869 0)
(59.3856889333 8.36786144635 0)
(59.3874176938 8.36755451581 0)
(59.3891668103 8.36725295768 0)
(59.3909359331 8.36695681025 0)
(59.3927247039 8.36666613247 0)
(59.3945327572 8.36638100266 0)
(59.3963597199 8.36610151428 0)
(59.3982052117 8.36582777014 0)
(59.4000688441 8.36555987652 0)
(59.4019502204 8.36529793798 0)
(59.4038489351 8.36504205398 0)
(59.4057645737 8.3647923171 0)
(59.4076967127 8.36454881308 0)
(59.4096449204 8.36431162161 0)
(59.4116087565 8.36408081732 0)
(59.4135877734 8.36385647021 0)
(59.4155815158 8.36363864514 0)
(59.4175895207 8.36342740044 0)
(59.4196113179 8.36322278572 0)
(59.421646429 8.363024839 0)
(59.423694367 8.36283358332 0)
(59.4257546364 8.36264902279 0)
(59.4278267317 8.36247113878 0)
(59.4299101388 8.36229988707 0)
(59.4320043323 8.36213519801 0)
(59.4341087805 8.36197698082 0)
(59.4362229378 8.36182513382 0)
(59.4383462633 8.36167955876 0)
(59.4404781901 8.36154017855 0)
(59.4426181919 8.36140695069 0)
(59.4447656615 8.3612798784 0)
(59.4469201537 8.36115900364 0)
(59.44908092 8.36104440625 0)
(59.4512478132 8.36093616462 0)
(59.453419532 8.3608343756 0)
(59.455597021 8.36073906394 0)
(59.4577768676 8.36065031921 0)
(59.4599641019 8.36056804946 0)
(59.4621473452 8.36049238443 0)
(59.4643470535 8.36042337566 0)
(59.4665217965 8.36035981724 0)
(59.4707161504 8.36026198455 0)
(59.477102201 8.36017150552 0)
(59.4836027852 8.36012792966 0)
(59.4903059924 8.36014095549 0)
(59.4971623308 8.3602187474 0)
(59.5041733725 8.36036909423 0)
(59.5113176966 8.36059457442 0)
(59.5185777099 8.36089684637 0)