/*--------------------------------*- C++ -*----------------------------------*\
  =========                 |
  \\      /  F ield         | OpenFOAM: The Open Source CFD Toolbox
   \\    /   O peration     | Website:  https://openfoam.org
    \\  /    A nd           | Version:  6
     \\/     M anipulation  |
\*---------------------------------------------------------------------------*/
FoamFile
{
    version     2.0;
    format      ascii;
    class       surfaceVectorField;
    location    "0.261799";
    object      Uf;
}
// * * * * * * * * * * * * * * * * * * * * * * * * * * * * * * * * * * * * * //

dimensions      [0 1 -1 0 0 0 0];

internalField   nonuniform List<vector> 
86110
(
(59.4103850995 8.31913340636 0)
(59.4153955834 8.35153099659 0)
(59.4070663152 8.30360159278 0)
(59.4149706514 8.3481719957 0)
(59.4043986223 8.29613478669 0)
(59.413840538 8.34724121244 0)
(59.4013604759 8.29097369876 0)
(59.4127609017 8.34791226387 0)
(59.3981035945 8.28579496709 0)
(59.4112067207 8.34837512155 0)
(59.3947957956 8.28071037313 0)
(59.4094818988 8.34857316112 0)
(59.3915443768 8.27584842146 0)
(59.4075010344 8.34858969575 0)
(59.3884625052 8.27107026814 0)
(59.4053657377 8.34839714807 0)
(59.3857586233 8.26630278057 0)
(59.4031193219 8.34779533684 0)
(59.3836438323 8.26175820004 0)
(59.4009041745 8.34674350721 0)
(59.3822167274 8.25781263075 0)
(59.3988438399 8.34542914166 0)
(59.3813960053 8.25479943821 0)
(59.3970234872 8.34420460789 0)
(59.3809417583 8.25284124121 0)
(59.3954339304 8.34341993885 0)
(59.3805469708 8.25179354168 0)
(59.3939853565 8.34326540794 0)
(59.379953002 8.25130426374 0)
(59.3925464621 8.34369003399 0)
(59.3790350739 8.25095046662 0)
(59.3910057176 8.34443399248 0)
(59.3778255252 8.25038338901 0)
(59.389315907 8.34514740517 0)
(59.376475449 8.24942256664 0)
(59.3875077805 8.34553176158 0)
(59.3751814022 8.24807315252 0)
(59.3856700848 8.34543976371 0)
(59.374112079 8.24647757848 0)
(59.3839109799 8.34490069874 0)
(59.3733613042 8.24483504717 0)
(59.3823193984 8.34407695886 0)
(59.3729368482 8.24332510289 0)
(59.3809409969 8.34318387885 0)
(59.3727789417 8.24205945198 0)
(59.3797737539 8.34241096047 0)
(59.3727938734 8.24106891882 0)
(59.3787796893 8.34187148491 0)
(59.3728875989 8.24031835882 0)
(59.3779044326 8.34158936014 0)
(59.3729892438 8.23973566825 0)
(59.3770962109 8.34151641655 0)
(59.3730609878 8.23924145493 0)
(59.376318673 8.34156539338 0)
(59.3730961595 8.23877061599 0)
(59.3755557315 8.34164375002 0)
(59.3731101419 8.23828274176 0)
(59.374809622 8.34167831469 0)
(59.3731290027 8.23776266292 0)
(59.374094922 8.34162705857 0)
(59.3731795253 8.23721469717 0)
(59.3734314175 8.34147934284 0)
(59.3732825339 8.2366544542 0)
(59.3728379545 8.34124867308 0)
(59.3734498295 8.23610114353 0)
(59.3723283695 8.34096248192 0)
(59.3736840586 8.23557201237 0)
(59.3719096668 8.34065244987 0)
(59.3739804136 8.2350793279 0)
(59.3715820291 8.34034738725 0)
(59.3743291214 8.23462955962 0)
(59.3713399953 8.34006919867 0)
(59.3747179243 8.23422400901 0)
(59.3711741824 8.33983161493 0)
(59.3751341275 8.23386019455 0)
(59.3710730436 8.33964071581 0)
(59.3755660136 8.23353332583 0)
(59.3710244119 8.33949656841 0)
(59.3760037023 8.2332376558 0)
(59.3710166394 8.33939492591 0)
(59.3764394828 8.23296732524 0)
(59.3710394196 8.33932913711 0)
(59.3768679034 8.23271708893 0)
(59.3710841696 8.3392911067 0)
(59.3772855077 8.23248232976 0)
(59.3711443137 8.33927288808 0)
(59.3776906952 8.23225958608 0)
(59.3712150857 8.33926627841 0)
(59.3780831391 8.23204571359 0)
(59.3712936426 8.33926502815 0)
(59.3784638465 8.23183930738 0)
(59.3713783328 8.33926202768 0)
(59.3788341142 8.23163719833 0)
(59.3714692441 8.33925488618 0)
(59.3791965591 8.23144178774 0)
(59.371566106 8.33923568739 0)
(59.3795092974 8.23130266009 0)
(59.3716586092 8.33903602572 0)
(59.3798225105 8.2311607513 0)
(59.371745703 8.3390196251 0)
(59.3801371584 8.23101396416 0)
(59.37183851 8.33899482929 0)
(59.3804543909 8.23086292535 0)
(59.3719397529 8.338960791 0)
(59.3807753154 8.23070816156 0)
(59.3720503162 8.33891786822 0)
(59.3811009209 8.2305502504 0)
(59.372171032 8.33886696558 0)
(59.3814320841 8.23038956158 0)
(59.3723028732 8.33880904729 0)
(59.3817695507 8.23022616964 0)
(59.3724465836 8.33874519928 0)
(59.3821139441 8.23005998551 0)
(59.3726027456 8.33867643754 0)
(59.3824657672 8.22989103954 0)
(59.372771761 8.33860376218 0)
(59.3828253873 8.22971971621 0)
(59.3729538183 8.33852830263 0)
(59.3831930139 8.22954686207 0)
(59.3731488843 8.33845136746 0)
(59.3835686753 8.22937376915 0)
(59.3733567018 8.33837446198 0)
(59.3839521937 8.22920196885 0)
(59.3735767961 8.33829929532 0)
(59.3843431741 8.22903282457 0)
(59.3738084864 8.33822766979 0)
(59.3847410283 8.22886710695 0)
(59.3740509054 8.33816118927 0)
(59.3851450412 8.22870481763 0)
(59.3743030334 8.33810090784 0)
(59.3855544614 8.22854536904 0)
(59.3745637528 8.33804712921 0)
(59.3859685857 8.22838798531 0)
(59.3748319162 8.33799946022 0)
(59.3863868142 8.22823208276 0)
(59.3751064159 8.33795704822 0)
(59.3868086735 8.22807746104 0)
(59.3753862451 8.33791885185 0)
(59.387233816 8.22792427788 0)
(59.3756705451 8.33788383065 0)
(59.387662012 8.22777287973 0)
(59.3759586368 8.33785101605 0)
(59.3880931436 8.22762359414 0)
(59.376250041 8.33781948458 0)
(59.3885272084 8.227476577 0)
(59.3765444885 8.33778828488 0)
(59.3889643295 8.22733176899 0)
(59.3768419251 8.33775638089 0)
(59.3894047649 8.22718896006 0)
(59.3771425099 8.33772265916 0)
(59.3898489075 8.22704791278 0)
(59.377446607 8.33768600925 0)
(59.3902972695 8.22690847879 0)
(59.3777547677 8.33764544487 0)
(59.3907504542 8.22677066347 0)
(59.3780677021 8.33760021606 0)
(59.3912091193 8.2266346311 0)
(59.3783862418 8.33754987654 0)
(59.3916739381 8.2265006692 0)
(59.3787112978 8.33749429809 0)
(59.3921455651 8.22636913739 0)
(59.3790438164 8.33743364371 0)
(59.3926246059 8.22624041835 0)
(59.3793847376 8.3373683168 0)
(59.3931115965 8.22611487948 0)
(59.3797349576 8.33729889993 0)
(59.3936069885 8.22599284828 0)
(59.3800952988 8.33722609261 0)
(59.3941111422 8.22587460152 0)
(59.3804664859 8.33715065416 0)
(59.3946243252 8.22576036573 0)
(59.3808491309 8.33707335551 0)
(59.3951467153 8.22565032552 0)
(59.3812437253 8.33699494092 0)
(59.3956784074 8.22554463642 0)
(59.3816506391 8.33691610007 0)
(59.396219422 8.22544344002 0)
(59.3820701262 8.3368374509 0)
(59.3967697148 8.2253468788 0)
(59.3825023341 8.33675953369 0)
(59.3973291852 8.22525510646 0)
(59.382947317 8.33668281425 0)
(59.3978976851 8.22516828923 0)
(59.3834050502 8.33660769082 0)
(59.398475026 8.22508659511 0)
(59.383875445 8.33653449769 0)
(59.3990609875 8.22501017296 0)
(59.3843583639 8.33646350056 0)
(59.3996553275 8.2249391282 0)
(59.3848536346 8.33639488395 0)
(59.400257793 8.22487350419 0)
(59.385361064 8.33632873599 1.30780396447e-35)
(59.4008681338 8.22481327742 0)
(59.3858804506 8.33626503867 -1.30780309176e-35)
(59.4014861141 8.22475837053 0)
(59.386411597 8.33620367126 0)
(59.402111523 8.22470868132 0)
(59.3869543191 8.33614443143 0)
(59.4027441792 8.22466412059 0)
(59.3875084537 8.33608707395 0)
(59.4033839305 8.22462464777 0)
(59.3880738626 8.33603136069 0)
(59.4040306466 8.22459029219 0)
(59.3886504323 8.3359771103 0)
(59.4046842081 8.22456115202 0)
(59.3892380699 8.33592423313 0)
(59.4053444946 8.22453736947 0)
(59.3898366955 8.33587273913 0)
(59.4060113753 8.22451908982 0)
(59.390446234 8.33582271454 0)
(59.4066847058 8.22450641853 0)
(59.3910666069 8.33577427402 0)
(59.4073643309 8.22449939168 0)
(59.3916977285 8.33572750441 0)
(59.4080500942 8.2244979721 0)
(59.392339504 8.33568241964 0)
(59.4087418479 8.22450206859 0)
(59.392991834 8.33563894572 0)
(59.4094394636 8.22451159591 0)
(59.3936546207 8.3355969296 0)
(59.4101428288 8.22452650549 0)
(59.3943277706 8.33555622659 0)
(59.4108518496 8.22454679766 0)
(59.3950111978 8.33551668639 0)
(59.4115664424 8.22457258043 0)
(59.3957048255 8.33547822957 0)
(59.4122865141 8.22460406073 0)
(59.3964085835 8.33544093358 0)
(59.4130119491 8.22464148509 0)
(59.3971223964 8.33540498167 0)
(59.4137426007 8.22468509598 0)
(59.3978461768 8.33537062996 0)
(59.4144782892 8.22473508987 0)
(59.3985798199 8.33533815426 0)
(59.415218805 8.22479159183 0)
(59.3993231996 8.33530779697 0)
(59.4159639179 8.22485465287 0)
(59.4000761686 8.33527973184 0)
(59.4167133856 8.22492426603 0)
(59.4008385618 8.33525405479 0)
(59.417466962 8.22500039159 0)
(59.4016102003 8.33523079779 0)
(59.4182244015 8.22508298026 0)
(59.4023908956 8.33520995452 0)
(59.418985461 8.22517198664 0)
(59.403180453 8.33519150438 0)
(59.4197498997 8.22526737162 0)
(59.4039786732 8.33517542565 0)
(59.4205174793 8.22536909801 0)
(59.4047853536 8.33516169679 0)
(59.4212879644 8.22547712542 0)
(59.4056002893 8.33515029102 0)
(59.4220611239 8.22559140925 0)
(59.406423274 8.33514117208 0)
(59.4228367317 8.22571190431 0)
(59.4072541014 8.33513429598 0)
(59.4236145668 8.22583857061 0)
(59.4080925664 8.33512961933 0)
(59.4243944118 8.22597137719 0)
(59.4089384645 8.33512710975 0)
(59.4251760508 8.22611030076 0)
(59.4097915917 8.33512675266 0)
(59.4259592675 8.22625531879 0)
(59.410651743 8.33512854957 0)
(59.4267438445 8.22640639922 0)
(59.4115187107 8.3351325068 0)
(59.4275295648 8.22656349108 0)
(59.4123922841 8.33513861794 0)
(59.4283162158 8.22672652029 0)
(59.4132722506 8.33514684647 0)
(59.4291035935 8.22689539326 0)
(59.414158398 8.33515711596 0)
(59.4298915075 8.22707000816 0)
(59.4150505181 8.3351693132 0)
(59.4306797829 8.2272502707 0)
(59.4159484104 8.33518330535 0)
(59.4314682597 8.22743610974 0)
(59.4168518843 8.33519896729 0)
(59.4322567883 8.2276274874 0)
(59.4177607587 8.3352162109 0)
(59.433045222 8.22782440053 0)
(59.4186748589 8.33523500708 0)
(59.4338334095 8.22802687265 0)
(59.4195940117 8.33525539299 0)
(59.4346211878 8.22823493891 0)
(59.4205180388 8.33527746209 0)
(59.4354083783 8.2284486285 0)
(59.4214467515 8.33530133988 0)
(59.4361947866 8.22866794936 0)
(59.4223799475 8.33532715284 0)
(59.4369802064 8.22889287881 0)
(59.4233174105 8.33535499952 0)
(59.4377644243 8.22912336183 0)
(59.4242589123 8.33538493117 0)
(59.4385472273 8.22935931587 0)
(59.4252042169 8.33541694533 0)
(59.4393284077 8.22960063999 0)
(59.4261530856 8.33545099201 0)
(59.4401077676 8.22984722524 0)
(59.4271052813 8.33548698832 0)
(59.4408851203 8.23009896358 0)
(59.4280605713 8.33552483654 0)
(59.4416602905 8.23035575394 0)
(59.4290187291 8.33556444053 0)
(59.4424331124 8.23061750468 0)
(59.429979534 8.33560571751 0)
(59.4432034274 8.23088413325 0)
(59.4309427702 8.33564860399 0)
(59.4439710819 8.23115556365 0)
(59.4319082248 8.33569305609 0)
(59.4447359251 8.23143172304 0)
(59.4328756862 8.335739046 0)
(59.4454978079 8.23171253831 0)
(59.4338449423 8.33578655627 0)
(59.4462565826 8.23199793336 0)
(59.4348157798 8.33583557364 0)
(59.4470121025 8.23228782738 0)
(59.4357879835 8.33588608383 0)
(59.4477642229 8.2325821342 0)
(59.436761336 8.335938068 0)
(59.4485128018 8.23288076253 0)
(59.4377356185 8.33599150124 0)
(59.4492577001 8.23318361678 0)
(59.438710611 8.33604635286 0)
(59.449998783 8.233490598 0)
(59.4396860926 8.33610258785 0)
(59.4507359195 8.23380160456 0)
(59.440661842 8.33616016877 0)
(59.4514689828 8.23411653246 0)
(59.4416376378 8.33621905721 0)
(59.4521978507 8.23443527503 0)
(59.4426132582 8.33627921435 0)
(59.4529224051 8.23475772234 0)
(59.443588481 8.33634060034 0)
(59.4536425327 8.23508376029 0)
(59.4445630841 8.33640317288 0)
(59.4543581255 8.23541326979 0)
(59.445536845 8.33646688516 0)
(59.4550690815 8.23574612621 0)
(59.4465095419 8.33653168398 0)
(59.4557753059 8.23608219904 0)
(59.4474809539 8.33659750799 0)
(59.4564767118 8.23642135195 0)
(59.4484508617 8.33666428663 0)
(59.4571732219 8.23676344313 0)
(59.449419049 8.33673193941 0)
(59.4578647694 8.23710832582 0)
(59.4503853031 8.33680037591 0)
(59.4585512992 8.2374558491 0)
(59.4513494162 8.33686949641 0)
(59.4592327688 8.2378058587 0)
(59.4523111869 8.33693919402 0)
(59.4599091488 8.23815819816 0)
(59.4532704198 8.33700935739 0)
(59.460580423 8.23851270912 0)
(59.4542269281 8.33707987653 0)
(59.4612465875 8.23886923268 0)
(59.4551805291 8.33715064628 0)
(59.4619076491 8.23922760707 0)
(59.4561310494 8.33722157539 0)
(59.4625636244 8.23958767025 0)
(59.4570783115 8.33729258197 0)
(59.4632145366 8.23994925008 0)
(59.4580221505 8.33736360802 0)
(59.4638604173 8.24031217607 0)
(59.4589623751 8.33743458613 0)
(59.4645013007 8.24067624736 0)
(59.4598988325 8.33750548637 0)
(59.4651372355 8.24104128548 0)
(59.4608312824 8.33757619826 0)
(59.4657682674 8.24140702232 0)
(59.4617596308 8.33764672761 0)
(59.4663944812 8.24177331604 0)
(59.462683495 8.33771678447 0)
(59.4670159296 8.2421397085 0)
(59.46360302 8.33778656633 0)
(59.4676327851 8.24250637285 0)
(59.4645173743 8.33785521076 0)
(59.4682450484 8.2428718746 0)
(59.4654275524 8.33792389395 0)
(59.4688531655 8.24323952382 0)
(59.4663310164 8.33798940961 0)
(59.4694565756 8.2435980632 0)
(59.4672323955 8.33805895274 0)
(59.4708260519 8.24459207809 0)
(59.4689065932 8.33854504044 0)
(59.4721915784 8.24566759972 0)
(59.4713515898 8.33875524998 0)
(59.473555819 8.24681258019 0)
(59.4738229368 8.33896325499 0)
(59.4749079546 8.24803766 0)
(59.476310057 8.33919894629 0)
(59.4762409304 8.24933746862 0)
(59.4788087488 8.33945313304 0)
(59.4775452458 8.25070692567 0)
(59.481309344 8.33972946264 0)
(59.4788129198 8.25214149422 0)
(59.4838033756 8.34002272601 0)
(59.4800359966 8.25364099566 0)
(59.4862805986 8.3403312322 0)
(59.4812064501 8.25520567191 0)
(59.4887306248 8.34065386685 0)
(59.4823160947 8.25683434052 0)
(59.491141974 8.34098967378 0)
(59.4833570316 8.25852455542 0)
(59.4935026789 8.34133677184 0)
(59.484321866 8.26027337253 0)
(59.4958001955 8.34169293414 0)
(59.485203923 8.26207775943 0)
(59.4980216487 8.34205567391 0)
(59.4859974641 8.26393523586 0)
(59.5001538494 8.34242228806 0)
(59.4866977246 8.2658446977 0)
(59.5021837514 8.34279025958 0)
(59.4873004775 8.26780660208 0)
(59.5040985357 8.34315816805 0)
(59.4878011726 8.26982196005 0)
(59.505885919 8.34352632945 0)
(59.4881942383 8.27189035613 0)
(59.5075331571 8.34389627932 0)
(59.4884734497 8.27400851979 0)
(59.50902719 8.34426867799 0)
(59.4886335527 8.27617061306 0)
(59.5103538277 8.34464132775 0)
(59.4886721295 8.27837058374 0)
(59.5115008394 8.34500909746 0)
(59.488590072 8.28060423787 0)
(59.5124573176 8.34536673695 0)
(59.4883903415 8.2828700185 0)
(59.5132177953 8.34571142878 0)
(59.4880761046 8.28516707319 0)
(59.5137761496 8.34604371832 0)
(59.4876501156 8.28749415659 0)
(59.5141319435 8.3463647762 0)
(59.4871153407 8.28984802769 0)
(59.5142791679 8.34667517529 0)
(59.4864763645 8.29222567965 0)
(59.5142231832 8.34697292171 0)
(59.4857396057 8.29462309699 0)
(59.5139587549 8.3472568516 0)
(59.4849133731 8.29703889534 0)
(59.5135035435 8.34752466706 0)
(59.4840064352 8.29946940614 0)
(59.5128500221 8.34777803749 0)
(59.4830285861 8.30191524235 0)
(59.5120319573 8.34801518361 0)
(59.4819891159 8.30437135073 0)
(59.5110281306 8.34824024734 0)
(59.4808994015 8.30684137107 0)
(59.5098975928 8.34844849811 0)
(59.4797695838 8.30931733461 0)
(59.5085908282 8.34864740717 0)
(59.4786138292 8.31180881327 0)
(59.5072152819 8.34882678152 0)
(59.4774420015 8.31430129683 0)
(59.5056663968 8.34900234059 0)
(59.4762718497 8.31681515355 0)
(59.5041373454 8.34915326899 0)
(59.4751096024 8.31932178951 0)
(59.5024149546 8.34931194691 0)
(59.4739802126 8.32186212605 0)
(59.5008426819 8.34943411438 0)
(59.4728794384 8.32437811527 0)
(59.4990078784 8.34958658664 0)
(59.4718524535 8.32695087904 0)
(59.4975181008 8.34967286075 0)
(59.4708649275 8.32945911127 0)
(59.4956145808 8.34983740757 0)
(59.4700267324 8.33206753073 0)
(59.4943498157 8.3498581386 0)
(59.4692029299 8.3345052738 0)
(59.4924055668 8.35007746533 0)
(59.4687420751 8.33714217198 0)
(59.4915113884 8.34992064375 0)
(59.4681258803 8.33925605136 0)
(59.4895907702 8.35032517797 0)
(59.4686354768 8.34194594578 0)
(59.4891269769 8.34958187181 0)
(59.4875389819 8.35024253261 0)
(59.4198598864 8.36830095331 0)
(59.4158021149 8.34607903301 0)
(59.4213516153 8.3787193322 0)
(59.4158875559 8.34597195283 0)
(59.4218278479 8.38547064857 0)
(59.4147706476 8.34651782647 0)
(59.4221040893 8.39133840567 0)
(59.4139041289 8.34748009903 0)
(59.4220332958 8.39678991776 0)
(59.4127004961 8.34848918958 0)
(59.4215551438 8.40171904102 0)
(59.4114435388 8.34936666028 0)
(59.4206426888 8.40606233065 0)
(59.4099767166 8.35014925406 0)
(59.4192987934 8.40972174379 0)
(59.4083743387 8.35076287954 0)
(59.4175226429 8.41253455557 0)
(59.406575463 8.35101558633 0)
(59.4153642912 8.41444399909 0)
(59.404586109 8.35077384782 0)
(59.4129370583 8.41562138311 0)
(59.4024185526 8.35009724828 0)
(59.4103896428 8.41643513961 0)
(59.4001404796 8.34925051095 0)
(59.4078544532 8.41729418892 0)
(59.3978327314 8.34859194872 0)
(59.4054077206 8.41846902971 0)
(59.395567652 8.34840637938 0)
(59.4030597719 8.41998859405 0)
(59.3933790535 8.34877112616 0)
(59.4007754767 8.42165886672 0)
(59.3912588954 8.34952531372 0)
(59.3985089806 8.42317925649 0)
(59.3891699221 8.35035027567 0)
(59.3962334933 8.42428812296 0)
(59.387069595 8.35091163749 0)
(59.3939539412 8.42486763901 0)
(59.3849306136 8.35099058374 0)
(59.3917015049 8.42497123598 0)
(59.3827508054 8.35054967724 0)
(59.3895174851 8.42477900015 0)
(59.380550573 8.34971831817 0)
(59.3874364441 8.42451519858 0)
(59.3783623631 8.34872015368 0)
(59.3854758933 8.42436834092 0)
(59.3762184091 8.34778282268 0)
(59.3836348802 8.42444200608 0)
(59.3741418973 8.34706681851 0)
(59.3818995528 8.42474508021 0)
(59.3721437453 8.34663304305 0)
(59.3802517121 8.42521345519 0)
(59.3702244094 8.34644919231 0)
(59.3786765249 8.42574704182 0)
(59.3683785146 8.34642183408 0)
(59.3771670854 8.42624621645 0)
(59.3665998688 8.34643679403 0)
(59.3757253063 8.42663733251 0)
(59.3648851187 8.34639355935 0)
(59.3743599464 8.42688379677 0)
(59.3632353391 8.34622604829 0)
(59.3730831668 8.42698461621 0)
(59.3616557216 8.34590870339 0)
(59.3719069494 8.42696510384 0)
(59.3601540308 8.34545131554 0)
(59.370840296 8.42686477348 0)
(59.3587386001 8.34488773802 0)
(59.3698876069 8.42672625778 0)
(59.3574165084 8.34426326828 0)
(59.3690482359 8.42658732569 0)
(59.3561922956 8.34362394782 0)
(59.3683169519 8.42647651146 0)
(59.3550673673 8.34300928515 0)
(59.3676849747 8.42641181392 0)
(59.3540399804 8.34244850371 0)
(59.3671412371 8.42640149478 0)
(59.3531057325 8.34195962091 0)
(59.3666736618 8.42644594959 0)
(59.3522582268 8.34155035344 0)
(59.366270235 8.42653992567 0)
(59.3514899796 8.34121998909 0)
(59.3659198904 8.42667454955 0)
(59.3507930301 8.34096150655 0)
(59.3656130243 8.4268390728 0)
(59.3501598649 8.34076369639 0)
(59.3653419043 8.42702210896 0)
(59.3495834151 8.34061288587 0)
(59.3651005966 8.42721273363 0)
(59.3490581709 8.34049463254 0)
(59.3648851263 8.42740096763 0)
(59.3485788763 8.340394693 0)
(59.3646928215 8.42757864173 0)
(59.3481429768 8.34030042149 0)
(59.3645226883 8.42773905993 0)
(59.3477461863 8.34020105982 0)
(59.3643739438 8.42787905128 0)
(59.3473898629 8.34008767381 0)
(59.3642370166 8.42796728663 0)
(59.3471077984 8.34011971243 0)
(59.3641125969 8.42804171523 0)
(59.3468856437 8.34000432312 0)
(59.364001833 8.42810293367 0)
(59.3466791453 8.33987145079 0)
(59.3639056455 8.42815106893 0)
(59.3464897604 8.33972205042 0)
(59.3638249426 8.42818672238 0)
(59.3463179656 8.33955657731 0)
(59.3637606256 8.4282110857 0)
(59.3461646173 8.33937599172 0)
(59.3637134702 8.42822586461 0)
(59.346030498 8.33918225046 0)
(59.3636840766 8.42823303901 0)
(59.3459162382 8.33897783005 0)
(59.3636728128 8.42823466733 0)
(59.345822337 8.33876558306 0)
(59.3636797723 8.4282328102 0)
(59.3457491033 8.33854868328 0)
(59.3637047568 8.42822948873 0)
(59.345696626 8.33833056771 0)
(59.3637472819 8.4282266505 0)
(59.3456647604 8.33811480988 0)
(59.3638066047 8.4282262092 0)
(59.3456531248 8.33790496304 0)
(59.3638817648 8.42823014016 0)
(59.3456611151 8.33770445413 0)
(59.3639716258 8.42824047636 0)
(59.3456879304 8.33751648125 0)
(59.3640749043 8.42825908574 0)
(59.3457326043 8.33734380988 0)
(59.3641901938 8.42828729976 0)
(59.3457940368 8.33718846993 0)
(59.3643159972 8.42832559757 0)
(59.3458710271 8.33705148105 0)
(59.3644507811 8.42837350719 0)
(59.3459623153 8.33693273676 0)
(59.3645930511 8.42842973887 0)
(59.3460666321 8.33683107784 0)
(59.3647414351 8.4284924525 0)
(59.346182758 8.33674449286 0)
(59.3648947612 8.4285595368 0)
(59.3463095828 8.33667035868 0)
(59.3650521163 8.42862881444 0)
(59.3464461601 8.33660565757 0)
(59.365212881 8.42869814299 0)
(59.3465917495 8.33654714103 0)
(59.3653767414 8.42876543404 0)
(59.3467458448 8.33649144137 0)
(59.3655436821 8.42882864642 0)
(59.3469081869 8.3364351585 0)
(59.3657139682 8.4288858103 0)
(59.3470787635 8.33637496023 0)
(59.3658881196 8.42893510649 0)
(59.3472577991 8.33630771905 0)
(59.3660668801 8.42897498324 0)
(59.3474457365 8.33623067638 0)
(59.3662511809 8.42900427 0)
(59.3476432121 8.33614160017 0)
(59.3664420977 8.42902225249 0)
(59.3478510244 8.33603889996 0)
(59.366640803 8.42902869459 0)
(59.348070097 8.3359216805 0)
(59.3668485162 8.42902381122 0)
(59.348301439 8.33578973444 0)
(59.3670664541 8.42900820566 0)
(59.3485461028 8.33564348583 0)
(59.3672957853 8.42898278544 0)
(59.3488051438 8.33548389869 0)
(59.3675375911 8.42894866905 0)
(59.3490795827 8.33531236394 0)
(59.3677928344 8.4289070933 0)
(59.3493703739 8.33513057629 0)
(59.3680623388 8.4288593282 0)
(59.3496783796 8.33494041075 0)
(59.3683467769 8.42880660427 0)
(59.3500043519 8.33474380649 0)
(59.3686466681 8.42875005616 0)
(59.3503489225 8.33454266394 0)
(59.3689623856 8.42869068557 0)
(59.3507125996 8.33433876104 0)
(59.369294169 8.42862934442 0)
(59.3510957724 8.33413369267 0)
(59.3696421432 8.42856673475 0)
(59.3514987202 8.33392883443 0)
(59.3700063391 8.42850341784 0)
(59.3519216265 8.33372532711 0)
(59.3703867156 8.42843982346 0)
(59.3523645957 8.33352407487 0)
(59.3707831804 8.42837625297 0)
(59.3528276702 8.33332575011 0)
(59.3711956077 8.4283128754 1.27920620827e-35)
(59.3533108472 8.33313080098 0)
(59.3716238534 8.42824972083 9.37740927787e-42)
(59.3538140935 8.33293946128 1.25060845212e-35)
(59.3720677668 8.42818667878 -1.27920535464e-35)
(59.3543373573 8.33275176515 -1.25060761757e-35)
(59.3725271998 8.42812350978 0)
(59.3548805778 8.33256757034 0)
(59.3730020146 8.42805987617 0)
(59.3554436917 8.33238659364 0)
(59.3734920898 8.42799539261 0)
(59.3560266397 8.33220846066 0)
(59.3739973247 8.42792968962 0)
(59.3566293703 8.33203276802 0)
(59.3745176421 8.42786247591 0)
(59.3572518436 8.33185915064 0)
(59.375052987 8.42779358133 0)
(59.3578940334 8.33168734054 0)
(59.375603323 8.42772296552 0)
(59.3585559272 8.33151720199 0)
(59.376168625 8.42765068738 0)
(59.3592375232 8.3313487319 0)
(59.3767488704 8.42757684434 0)
(59.3599388255 8.33118202454 0)
(59.377344031 8.42750150147 0)
(59.3606598375 8.33101721169 0)
(59.3779540669 8.42742463637 0)
(59.3614005542 8.33085439779 0)
(59.3785789255 8.42734611482 0)
(59.3621609576 8.33069361308 0)
(59.3792185437 8.4272657276 0)
(59.3629410161 8.3305347941 0)
(59.3798728523 8.42718323285 0)
(59.3637406824 8.33037782537 0)
(59.3805417826 8.42709840558 0)
(59.3645598984 8.33022255647 0)
(59.3812252717 8.42701114079 0)
(59.3653986023 8.33006887532 0)
(59.381923265 8.42692149555 0)
(59.3662567333 8.32991678916 0)
(59.382635714 8.42682966349 0)
(59.3671342347 8.32976643039 0)
(59.383362571 8.42673593257 0)
(59.3680310535 8.32961804821 0)
(59.3841037823 8.42664062119 0)
(59.3689471369 8.32947196885 0)
(59.3848592805 8.42654401596 0)
(59.369882427 8.32932853961 0)
(59.3856289806 8.42644633089 0)
(59.3708368538 8.3291880769 0)
(59.3864127774 8.42634769653 0)
(59.3718103318 8.3290508334 0)
(59.3872105471 8.42624817457 0)
(59.3728027571 8.32891699027 0)
(59.3880221498 8.42614778427 0)
(59.3738140082 8.32878666883 0)
(59.3888474325 8.42604652593 0)
(59.3748439481 8.32865995032 0)
(59.3896862323 8.4259443927 0)
(59.3758924265 8.32853689223 0)
(59.3905383786 8.42584137085 0)
(59.3769592825 8.32841753551 0)
(59.3914036942 8.42573743507 0)
(59.3780443459 8.32830190415 0)
(59.3922819966 8.42563254718 0)
(59.3791474381 8.32819000295 0)
(59.3931730995 8.42552666236 0)
(59.3802683728 8.3280818196 0)
(59.3940768136 8.42541974205 0)
(59.3814069573 8.32797733373 0)
(59.3949929474 8.42531176712 0)
(59.3825629937 8.32787653058 0)
(59.3959213071 8.4252027441 0)
(59.3837362798 8.32777941349 0)
(59.396861696 8.4250926991 0)
(59.38492661 8.32768600842 0)
(59.3978139126 8.42498165947 0)
(59.3861337741 8.32759635628 0)
(59.3987777505 8.42486962861 0)
(59.3873575569 8.32751049353 0)
(59.3997529974 8.42475656343 0)
(59.3885977359 8.32742842701 0)
(59.4007394372 8.42464236434 0)
(59.3898540807 8.32735011249 0)
(59.4017368524 8.42452688439 0)
(59.3911263535 8.32727544715 0)
(59.4027450274 8.42440995765 0)
(59.3924143102 8.32720428201 0)
(59.4037637517 8.42429143971 0)
(59.3937177036 8.32713645375 0)
(59.4047928205 8.42417124818 0)
(59.3950362861 8.32707182774 0)
(59.4058320336 8.42404938995 0)
(59.3963698116 8.32701033863 0)
(59.4068811919 8.42392596625 0)
(59.3977180362 8.3269520153 0)
(59.4079400924 8.42380115347 0)
(59.3990807168 8.32689698129 0)
(59.4090085235 8.42367516594 0)
(59.4004576081 8.32684543053 0)
(59.4100862615 8.42354821195 0)
(59.4018484597 8.32679758602 0)
(59.4111730689 8.42342045535 0)
(59.4032530129 8.32675365407 0)
(59.4122686956 8.42329199211 0)
(59.4046709989 8.32671378699 0)
(59.4133728813 8.42316284542 0)
(59.4061021384 8.32667806271 0)
(59.414485359 8.42303297738 0)
(59.4075461426 8.32664648386 0)
(59.4156058585 8.422902311 0)
(59.4090027147 8.32661899291 0)
(59.4167341091 8.42277075543 0)
(59.410471552 8.32659549632 0)
(59.4178698411 8.42263822785 0)
(59.4119523476 8.32657589023 0)
(59.4190127861 8.42250466828 0)
(59.4134447919 8.32656008152 0)
(59.4201626763 8.42237004614 0)
(59.4149485731 8.32654800128 0)
(59.4213192434 8.42223435955 0)
(59.4164633772 8.32653960982 0)
(59.4224822172 8.42209762948 0)
(59.4179888883 8.32653489485 0)
(59.4236513243 8.42195989143 0)
(59.4195247871 8.32653386507 0)
(59.4248262866 8.42182118695 0)
(59.4210707507 8.32653654169 0)
(59.4260068214 8.42168155672 0)
(59.4226264518 8.32654295005 0)
(59.4271926404 8.42154103623 0)
(59.4241915583 8.32655311311 0)
(59.4283834501 8.42139965441 0)
(59.4257657328 8.32656704748 0)
(59.4295789523 8.42125743454 0)
(59.4273486327 8.32658476238 0)
(59.4307788435 8.42111439669 0)
(59.4289399103 8.32660626083 0)
(59.4319828158 8.4209705603 0)
(59.430539213 8.32663154207 0)
(59.4331905569 8.42082594592 0)
(59.4321461835 8.32666060391 0)
(59.4344017495 8.42068057547 0)
(59.4337604605 8.32669344409 0)
(59.435616072 8.42053447083 0)
(59.4353816781 8.32673006 0)
(59.4368331976 8.42038765132 0)
(59.437009467 8.32677044685 0)
(59.4380527953 8.42024013065 0)
(59.4386434534 8.32681459482 0)
(59.4392745293 8.42009191393 0)
(59.4402832601 8.32686248585 0)
(59.44049806 8.41994299526 0)
(59.4419285063 8.3269140905 0)
(59.4417230442 8.41979335596 0)
(59.443578808 8.32696936519 0)
(59.4429491363 8.41964296359 0)
(59.4452337783 8.32702824995 0)
(59.444175989 8.41949177212 0)
(59.4468930284 8.3270906669 0)
(59.4454032545 8.41933972378 0)
(59.4485561682 8.32715652028 0)
(59.4466305856 8.41918675327 0)
(59.4502228077 8.32722569906 0)
(59.447857636 8.41903279479 0)
(59.4518925574 8.3272980835 0)
(59.4490840606 8.41887779123 0)
(59.4535650298 8.32737355549 0)
(59.4503095138 8.41872170454 0)
(59.4552398393 8.32745201302 0)
(59.4515336478 8.41856452371 0)
(59.4569166019 8.3275333835 0)
(59.4527561078 8.41840626966 0)
(59.4585949333 8.32761763747 0)
(59.4539765305 8.41824699098 0)
(59.4602744479 8.32770478836 0)
(59.4551945361 8.41808675696 0)
(59.461954755 8.32779489619 0)
(59.4564097317 8.41792563633 0)
(59.4636354581 8.32788803534 0)
(59.4576216976 8.4177636897 0)
(59.4653161509 8.32798430754 0)
(59.45883001 8.41760093268 0)
(59.4669964166 8.32808375236 0)
(59.4600341968 8.41743736374 0)
(59.4686758353 8.32818646082 0)
(59.4612338266 8.41727288912 0)
(59.4703539507 8.32829230828 0)
(59.4624283368 8.41710745244 0)
(59.4720303704 8.32840147025 0)
(59.4636173836 8.41694086524 0)
(59.473704503 8.32851339311 0)
(59.4648001 8.416772906 0)
(59.4753762202 8.32862900939 0)
(59.4659768528 8.41660330832 0)
(59.4770440945 8.32874575077 0)
(59.4694261817 8.41613570464 0)
(59.4801799335 8.32866642575 0)
(59.4729306985 8.41564962306 0)
(59.4848306154 8.3290102959 0)
(59.4764751225 8.41513355924 0)
(59.4895715971 8.32939379293 0)
(59.4800590888 8.41458953732 0)
(59.4944027874 8.32980396331 0)
(59.4836741731 8.41402102793 0)
(59.4993120713 8.33025201258 0)
(59.4873124982 8.41343015106 0)
(59.5042889366 8.3307383383 0)
(59.4909630035 8.41281511065 0)
(59.5093196194 8.33126370238 0)
(59.494613335 8.41217321401 0)
(59.5143883229 8.3318271933 0)
(59.4982496876 8.41150234535 0)
(59.519477126 8.33242861643 0)
(59.5018570087 8.41080088551 0)
(59.5245659791 8.33306724852 0)
(59.5054188651 8.41006718359 0)
(59.5296328124 8.33374155859 0)
(59.508917474 8.40929942831 0)
(59.5346534855 8.33444942228 0)
(59.5123337335 8.40849540701 0)
(59.5396019177 8.33518823434 0)
(59.5156474542 8.40765231589 0)
(59.5444501 8.33595458441 0)
(59.518837912 8.40676725658 0)
(59.5491685767 8.33674413039 0)
(59.5218845528 8.40583857587 0)
(59.5537268743 8.33755239021 0)
(59.5247673065 8.4048669712 0)
(59.5580944618 8.33837626826 0)
(59.5274661879 8.40385484256 0)
(59.5622404858 8.33921484573 0)
(59.5299606274 8.40280367848 0)
(59.5661340536 8.3400676242 0)
(59.5322296084 8.40171172286 0)
(59.5697429134 8.34093105064 0)
(59.5342530387 8.40057439435 0)
(59.5730357464 8.3417965175 0)
(59.5360136108 8.39938752314 0)
(59.5759818261 8.3426527378 0)
(59.5374976866 8.39815010225 0)
(59.5785562784 8.34349015439 0)
(59.5386949893 8.39686433097 0)
(59.5807359753 8.34430375411 0)
(59.5395977376 8.39553290382 0)
(59.5825063256 8.34509099966 0)
(59.5402007581 8.39415723354 0)
(59.5838504828 8.34584904453 0)
(59.5405021301 8.39273693484 0)
(59.5847649151 8.34657204579 0)
(59.5405044428 8.39127207167 0)