/*--------------------------------*- C++ -*----------------------------------*\
  =========                 |
  \\      /  F ield         | OpenFOAM: The Open Source CFD Toolbox
   \\    /   O peration     | Website:  https://openfoam.org
    \\  /    A nd           | Version:  6
     \\/     M anipulation  |
\*---------------------------------------------------------------------------*/
FoamFile
{
    version     2.0;
    format      ascii;
    class       volScalarField::Internal;
    location    "0.261799";
    object      V0;
}
// * * * * * * * * * * * * * * * * * * * * * * * * * * * * * * * * * * * * * //

dimensions      [0 3 0 0 0 0 0];

value           nonuniform List<scalar> 
43264
(
0.496335092028
0.481909175049
0.467902545541
0.454303016771
0.441098756763
0.428278276924
0.415830422639
0.40374436371
0.392009584521
0.380615875247
0.369553322718
0.358812301881
0.348383467438
0.338257745743
0.32842632687
0.318880657026
0.30961243088
0.300613584492
0.291876288417
0.283392940806
0.275156160684
0.267158781398
0.259393845099
0.25185459554
0.244534473427
0.237427109698
0.230526320619
0.223826102103
0.217320624591
0.211004227961
0.204871416617
0.198916854663
0.193135361295
0.187521906302
0.18207160568
0.176779717363
0.171641637102
0.166652894517
0.161809149089
0.157106186518
0.152539914961
0.14810636152
0.143801668752
0.139622091337
0.135563992801
0.131623842404
0.127798211976
0.12408377302
0.0898033680758
0.0898033680672
0.0898033680758
0.0898033680758
0.0898033680672
0.0898033680758
0.0898033680758
0.0898033680672
0.0898033680758
0.0898033680758
0.0898033680672
0.0898033680758
0.0898033680758
0.0898033680672
0.0898033680758
0.0898033680758
0.0898033680672
0.0898033680758
0.0898033680758
0.0898033680672
0.0898033680758
0.0898033680758
0.0898033680672
0.0898033680758
0.0898033680758
0.0898033680672
0.0898033680758
0.0898033680758
0.0898033680672
0.0898033680758
0.0898033680758
0.0898033680672
0.0898033680758
0.0898033680758
0.0898033680672
0.0898033680758
0.0898033680758
0.0898033680672
0.0898033680758
0.0898033680732
0.0898033680723
0.0898033680732
0.0898033680732
0.0898033680723
0.0898033680732
0.0898033680732
0.0898033680723
0.0898033680732
0.0898033680732
0.0898033680723
0.0898033680732
0.0898033680732
0.0898033680723
0.0898033680732
0.0898033680732
0.0898033680723
0.0898033680732
0.0898033680758
0.0898033680672
0.0898033680758
0.0898033680758
0.0898033680672
0.0898033680758
0.0898033680758
0.0898033680672
0.0898033680758
0.0898033680758
0.0898033680672
0.0898033680758
0.0898033680758
0.0898033680672
0.0898033680758
0.0898033680758
0.0898033680672
0.0898033680758
0.0898033680758
0.0898033680672
0.0898033680758
0.0898033680758
0.0898033680672
0.0898033680758
0.0898033680758
0.0898033680672
0.0898033680758
0.0898033680758
0.0898033680672
0.0898033680758
0.0898033680758
0.0898033680672
0.0898033680758
0.0898033680758
0.0898033680672
0.0898033680758
0.0898033680758
0.0898033680672
0.0898033680758
0.0898033680758
0.0898033680672
0.0898033680758
0.0898033680758
0.0898033680672
0.0898033680758
0.0898033680758
0.0898033680672
0.0898033680758
0.0898033680758
0.0898033680672
0.0898033680758
0.0898033680758
0.0898033680672
0.0898033680758
0.0898033680758
0.0898033680672
0.0898033680758
0.0898033680758
0.0898033680672
0.0898033680758
0.0898033680758
0.0898033680672
0.0898033680758
0.0898033680758
0.0898033680672
0.0898033680758
0.0898033680758
0.0898033680672
0.0898033680758
0.0898033680758
0.0898033680672
0.0898033680758
0.0898033680758
0.0898033680672
0.0898033680758
0.0898033680758
0.0898033680672
0.0898033680758
0.0898033680758
0.0898033680672
0.0898033680758
0.0898033680758
0.0898033680672
0.0898033680758
0.0898033680758
0.0898033680672
0.0898033680758
0.248167546057
0.2555964239
0.263247684826
0.271127985636
0.279244182622
0.287603337521
0.296212723024
0.30507982994
0.314212373053
0.323618298195
0.333305789052
0.343283274152
0.353559434708
0.364143211428
0.375043812534
0.386270722641
0.39783370931
0.409742833218
0.422008455921
0.434641249164
0.447652204275
0.46105264122
0.474854219378
0.489068946854
0.503709191167
0.518787690025
0.534317562883
0.550312321282
0.566785881697
0.58375257692
0.601227168898
0.619224861674
0.637761314052
0.656852653825
0.676515491572
0.696766934876
0.717624603676
0.739106645437
0.761231750494
0.784019169127
0.807488727334
0.831660845279
0.856556553762
0.882197513527
0.908606033714
0.93580509091
0.963818350098
0.992670184142
0.47462836787
0.460833354097
0.447439290672
0.434434523836
0.421807739076
0.409547950237
0.397644490543
0.386087003443
0.37486543321
0.363970016538
0.353391273799
0.34312000088
0.333147261193
0.323464377917
0.314062926421
0.304934727003
0.296071837558
0.287466546813
0.279111367736
0.270999030939
0.263122478246
0.255474856431
0.248049511937
0.240839983999
0.233840000183
0.227043469974
0.220444480077
0.214037288989
0.207816322099
0.201776166826
0.195911567919
0.19021742284
0.184688777364
0.179320821271
0.174108884154
0.169048431336
0.164135059932
0.159364495068
0.154732586053
0.150235302897
0.145868732709
0.141629076341
0.137512645051
0.13351585732
0.129635235707
0.12586740389
0.122209083623
0.11865709198
0.0858759066277
0.0858759066195
0.0858759066277
0.0858759066277
0.0858759066195
0.0858759066277
0.0858759066277
0.0858759066195
0.0858759066277
0.0858759066277
0.0858759066195
0.0858759066277
0.0858759066277
0.0858759066195
0.0858759066277
0.0858759066277
0.0858759066195
0.0858759066277
0.0858759066277
0.0858759066195
0.0858759066277
0.0858759066277
0.0858759066195
0.0858759066277
0.0858759066277
0.0858759066195
0.0858759066277
0.0858759066277
0.0858759066195
0.0858759066277
0.0858759066277
0.0858759066195
0.0858759066277
0.0858759066277
0.0858759066195
0.0858759066277
0.0858759066277
0.0858759066195
0.0858759066277
0.0858759066253
0.0858759066245
0.0858759066253
0.0858759066253
0.0858759066245
0.0858759066253
0.0858759066253
0.0858759066245
0.0858759066253
0.0858759066253
0.0858759066245
0.0858759066253
0.0858759066253
0.0858759066245
0.0858759066253
0.0858759066253
0.0858759066245
0.0858759066253
0.0858759066277
0.0858759066195
0.0858759066277
0.0858759066277
0.0858759066195
0.0858759066277
0.0858759066277
0.0858759066195
0.0858759066277
0.0858759066277
0.0858759066195
0.0858759066277
0.0858759066277
0.0858759066195
0.0858759066277
0.0858759066277
0.0858759066195
0.0858759066277
0.0858759066277
0.0858759066195
0.0858759066277
0.0858759066277
0.0858759066195
0.0858759066277
0.0858759066277
0.0858759066195
0.0858759066277
0.0858759066277
0.0858759066195
0.0858759066277
0.0858759066277
0.0858759066195
0.0858759066277
0.0858759066277
0.0858759066195
0.0858759066277
0.0858759066277
0.0858759066195
0.0858759066277
0.0858759066277
0.0858759066195
0.0858759066277
0.0858759066277
0.0858759066195
0.0858759066277
0.0858759066277
0.0858759066195
0.0858759066277
0.0858759066277
0.0858759066195
0.0858759066277
0.0858759066277
0.0858759066195
0.0858759066277
0.0858759066277
0.0858759066195
0.0858759066277
0.0858759066277
0.0858759066195
0.0858759066277
0.0858759066277
0.0858759066195
0.0858759066277
0.0858759066277
0.0858759066195
0.0858759066277
0.0858759066277
0.0858759066195
0.0858759066277
0.0858759066277
0.0858759066195
0.0858759066277
0.0858759066277
0.0858759066195
0.0858759066277
0.0858759066277
0.0858759066195
0.0858759066277
0.0858759066277
0.0858759066195
0.0858759066277
0.0858759066277
0.0858759066195
0.0858759066277
0.0858759066277
0.0858759066195
0.0858759066277
0.237314183976
0.244418167197
0.251734807797
0.259270471448
0.26703171459
0.275025290119
0.283258152666
0.291737465434
0.300470605811
0.309465172123
0.318728990153
0.328270119814
0.338096862656
0.348217768373
0.358641642475
0.369377554777
0.380434845664
0.391823135822
0.403552333652
0.415632644182
0.428074578045
0.440888960138
0.454086939932
0.467680000366
0.48167996808
0.49609902371
0.510949712944
0.52624495641
0.54199806196
0.558222735554
0.574933093543
0.592143675033
0.609869454006
0.628125852924
0.646928755917
0.666294522386
0.686240001679
0.706782547598
0.727940033077
0.749730866503
0.772174006803
0.795288981087
0.819095900391
0.843615478151
0.868869047837
0.894878581179
0.921666708194
0.949256735823
0.453870965846
0.44067926335
0.427870976035
0.415434959809
0.403360394986
0.391636775881
0.380253902218
0.36920187038
0.358471064418
0.348052148013
0.33793605612
0.328113987159
0.318577395374
0.309317983417
0.300327695099
0.29159870845
0.283123428705
0.274894481836
0.266904708249
0.259147156474
0.25161507702
0.244301916377
0.237201311978
0.230307085609
0.22361323916
0.217113948474
0.210803558871
0.204676579945
0.198727680886
0.192951685827
0.18734356935
0.181898452073
0.176611596435
0.17147840259
0.166494404386
0.161655265465
0.156956775497
0.152394846567
0.14796550951
0.143664910583
0.139489308021
0.135435068829
0.131498665589
0.127676673414
0.123965766948
0.120362717527
0.116864390277
0.113467741473
0.0821202088255
0.0821202088177
0.0821202088255
0.0821202088255
0.0821202088177
0.0821202088255
0.0821202088255
0.0821202088177
0.0821202088255
0.0821202088255
0.0821202088177
0.0821202088255
0.0821202088255
0.0821202088177
0.0821202088255
0.0821202088255
0.0821202088177
0.0821202088255
0.0821202088255
0.0821202088177
0.0821202088255
0.0821202088255
0.0821202088177
0.0821202088255
0.0821202088255
0.0821202088177
0.0821202088255
0.0821202088255
0.0821202088177
0.0821202088255
0.0821202088255
0.0821202088177
0.0821202088255
0.0821202088255
0.0821202088177
0.0821202088255
0.0821202088255
0.0821202088177
0.0821202088255
0.0821202088232
0.0821202088224
0.0821202088232
0.0821202088232
0.0821202088224
0.0821202088232
0.0821202088232
0.0821202088224
0.0821202088232
0.0821202088232
0.0821202088224
0.0821202088232
0.0821202088232
0.0821202088224
0.0821202088232
0.0821202088232
0.0821202088224
0.0821202088232
0.0821202088255
0.0821202088177
0.0821202088255
0.0821202088255
0.0821202088177
0.0821202088255
0.0821202088255
0.0821202088177
0.0821202088255
0.0821202088255
0.0821202088177
0.0821202088255
0.0821202088255
0.0821202088177
0.0821202088255
0.0821202088255
0.0821202088177
0.0821202088255
0.0821202088255
0.0821202088177
0.0821202088255
0.0821202088255
0.0821202088177
0.0821202088255
0.0821202088255
0.0821202088177
0.0821202088255
0.0821202088255
0.0821202088177
0.0821202088255
0.0821202088255
0.0821202088177
0.0821202088255
0.0821202088255
0.0821202088177
0.0821202088255
0.0821202088255
0.0821202088177
0.0821202088255
0.0821202088255
0.0821202088177
0.0821202088255
0.0821202088255
0.0821202088177
0.0821202088255
0.0821202088255
0.0821202088177
0.0821202088255
0.0821202088255
0.0821202088177
0.0821202088255
0.0821202088255
0.0821202088177
0.0821202088255
0.0821202088255
0.0821202088177
0.0821202088255
0.0821202088255
0.0821202088177
0.0821202088255
0.0821202088255
0.0821202088177
0.0821202088255
0.0821202088255
0.0821202088177
0.0821202088255
0.0821202088255
0.0821202088177
0.0821202088255
0.0821202088255
0.0821202088177
0.0821202088255
0.0821202088255
0.0821202088177
0.0821202088255
0.0821202088255
0.0821202088177
0.0821202088255
0.0821202088255
0.0821202088177
0.0821202088255
0.0821202088255
0.0821202088177
0.0821202088255
0.0821202088255
0.0821202088177
0.0821202088255
0.226935482962
0.233728780506
0.240725435069
0.247931533927
0.25535334678
0.262997331193
0.270870137643
0.278978616058
0.287329821181
0.295931019036
0.30478969315
0.313913550947
0.323310530914
0.332988808835
0.342956805117
0.353223192918
0.363796904129
0.374687138685
0.385903371655
0.397455361757
0.409353159953
0.421607117726
0.434227896933
0.44722647832
0.460614171298
0.474402623798
0.488603832833
0.50323015396
0.518294313027
0.533809416576
0.549788963593
0.566246857331
0.583197416901
0.600655390277
0.618635966913
0.637154790748
0.656227974239
0.675872112239
0.696104296027
0.716942128915
0.738403740681
0.760507804437
0.783273551683
0.806720789971
0.830869919776
0.855741951913
0.881358526699
0.907741931771
0.434021368271
0.42140659183
0.409158462287
0.397266322925
0.385719827246
0.374508929022
0.363623874075
0.353055191913
0.342793687132
0.332830431726
0.323156757101
0.313764246607
0.304644728227
0.29579026749
0.287193160536
0.27884592748
0.270741305708
0.262872243688
0.255231894942
0.247813612018
0.240610940605
0.233617613807
0.226827547315
0.220234833115
0.213833735416
0.207618684777
0.201584273819
0.195725252254
0.190036522409
0.184513134778
0.179150283726
0.173943303264
0.168887663027
0.163978964335
0.15921293636
0.154585432392
0.150092426233
0.145730008751
0.141494384367
0.137381867878
0.133388881163
0.12951195011
0.12574770157
0.122092860441
0.118544246797
0.115098773178
0.111753441808
0.108505342079
0.0785287627525
0.078528762745
0.0785287627525
0.0785287627525
0.078528762745
0.0785287627525
0.0785287627525
0.078528762745
0.0785287627525
0.0785287627525
0.078528762745
0.0785287627525
0.0785287627525
0.078528762745
0.0785287627525
0.0785287627525
0.078528762745
0.0785287627525
0.0785287627525
0.078528762745
0.0785287627525
0.0785287627525
0.078528762745
0.0785287627525
0.0785287627525
0.078528762745
0.0785287627525
0.0785287627525
0.078528762745
0.0785287627525
0.0785287627525
0.078528762745
0.0785287627525
0.0785287627525
0.078528762745
0.0785287627525
0.0785287627525
0.078528762745
0.0785287627525
0.0785287627503
0.0785287627495
0.0785287627503
0.0785287627503
0.0785287627495
0.0785287627503
0.0785287627503
0.0785287627495
0.0785287627502
0.0785287627503
0.0785287627495
0.0785287627503
0.0785287627503
0.0785287627495
0.0785287627503
0.0785287627503
0.0785287627495
0.0785287627503
0.0785287627525
0.078528762745
0.0785287627525
0.0785287627525
0.078528762745
0.0785287627525
0.0785287627525
0.078528762745
0.0785287627525
0.0785287627525
0.078528762745
0.0785287627525
0.0785287627525
0.078528762745
0.0785287627525
0.0785287627525
0.078528762745
0.0785287627525
0.0785287627525
0.078528762745
0.0785287627525
0.0785287627525
0.078528762745
0.0785287627525
0.0785287627525
0.078528762745
0.0785287627525
0.0785287627525
0.078528762745
0.0785287627525
0.0785287627525
0.078528762745
0.0785287627525
0.0785287627525
0.078528762745
0.0785287627525
0.0785287627525
0.078528762745
0.0785287627525
0.0785287627525
0.078528762745
0.0785287627525
0.0785287627525
0.078528762745
0.0785287627525
0.0785287627525
0.078528762745
0.0785287627525
0.0785287627525
0.078528762745
0.0785287627525
0.0785287627525
0.078528762745
0.0785287627525
0.0785287627525
0.078528762745
0.0785287627525
0.0785287627525
0.078528762745
0.0785287627525
0.0785287627525
0.078528762745
0.0785287627525
0.0785287627525
0.078528762745
0.0785287627525
0.0785287627525
0.078528762745
0.0785287627525
0.0785287627525
0.078528762745
0.0785287627525
0.0785287627525
0.078528762745
0.0785287627525
0.0785287627525
0.078528762745
0.0785287627525
0.0785287627525
0.078528762745
0.0785287627525
0.0785287627525
0.078528762745
0.0785287627525
0.0785287627525
0.078528762745
0.0785287627525
0.217010684173
0.223506883571
0.23019754637
0.237088493625
0.244185720837
0.251495403156
0.259023900206
0.266777762341
0.274763735772
0.282988768749
0.291460017517
0.300184852422
0.309170864768
0.318425872781
0.32795792861
0.337775326099
0.347886606513
0.358300567437
0.369026269556
0.380073044802
0.391450504568
0.403168547623
0.41523736954
0.427667470832
0.440469666305
0.453655094479
0.467235227689
0.481221881135
0.495627224112
0.51046378996
0.5257444873
0.541482611341
0.557691854961
0.574386321146
0.591580535055
0.609289456455
0.627528493139
0.646313514203
0.665660863452
0.685587374338
0.706110383751
0.727247748151
0.749017857968
0.771439654492
0.794532646
0.818316924423
0.84281318366
0.868042736618
0.415039873167
0.402976791492
0.391264321776
0.379892273362
0.368850752247
0.358130151564
0.347721143726
0.337614672421
0.327801944398
0.318274422109
0.309023816073
0.300042077732
0.291321392465
0.282854172807
0.274633051819
0.266650876743
0.258900702584
0.251375786205
0.244069580553
0.236975728893
0.230088059187
0.223400578617
0.216907468965
0.210603080597
0.204481928573
0.198538687024
0.192768185059
0.187165402004
0.18172546313
0.176443635393
0.171315323325
0.166336065002
0.161501528188
0.156807506577
0.15224991612
0.147824791459
0.143528282479
0.139356651009
0.135306267467
0.131373607817
0.127555250425
0.123847873116
0.120248250262
0.116753249993
0.113359831456
0.110065042216
0.106866015604
0.103759968303
0.0750943850128
0.0750943850056
0.0750943850128
0.0750943850128
0.0750943850056
0.0750943850128
0.0750943850128
0.0750943850056
0.0750943850128
0.0750943850128
0.0750943850056
0.0750943850128
0.0750943850128
0.0750943850056
0.0750943850128
0.0750943850128
0.0750943850056
0.0750943850128
0.0750943850128
0.0750943850056
0.0750943850128
0.0750943850128
0.0750943850056
0.0750943850128
0.0750943850128
0.0750943850056
0.0750943850128
0.0750943850128
0.0750943850056
0.0750943850128
0.0750943850128
0.0750943850056
0.0750943850128
0.0750943850128
0.0750943850056
0.0750943850128
0.0750943850128
0.0750943850056
0.0750943850128
0.0750943850107
0.0750943850099
0.0750943850107
0.0750943850107
0.0750943850099
0.0750943850107
0.0750943850107
0.0750943850099
0.0750943850107
0.0750943850107
0.0750943850099
0.0750943850107
0.0750943850107
0.0750943850099
0.0750943850107
0.0750943850107
0.0750943850099
0.0750943850107
0.0750943850128
0.0750943850056
0.0750943850128
0.0750943850128
0.0750943850056
0.0750943850128
0.0750943850128
0.0750943850056
0.0750943850128
0.0750943850128
0.0750943850056
0.0750943850128
0.0750943850128
0.0750943850056
0.0750943850128
0.0750943850128
0.0750943850056
0.0750943850128
0.0750943850128
0.0750943850056
0.0750943850128
0.0750943850128
0.0750943850056
0.0750943850128
0.0750943850128
0.0750943850056
0.0750943850128
0.0750943850128
0.0750943850056
0.0750943850128
0.0750943850128
0.0750943850056
0.0750943850128
0.0750943850128
0.0750943850056
0.0750943850128
0.0750943850128
0.0750943850056
0.0750943850128
0.0750943850128
0.0750943850056
0.0750943850128
0.0750943850128
0.0750943850056
0.0750943850128
0.0750943850128
0.0750943850056
0.0750943850128
0.0750943850128
0.0750943850056
0.0750943850128
0.0750943850128
0.0750943850056
0.0750943850128
0.0750943850128
0.0750943850056
0.0750943850128
0.0750943850128
0.0750943850056
0.0750943850128
0.0750943850128
0.0750943850056
0.0750943850128
0.0750943850128
0.0750943850056
0.0750943850128
0.0750943850128
0.0750943850056
0.0750943850128
0.0750943850128
0.0750943850056
0.0750943850128
0.0750943850128
0.0750943850056
0.0750943850128
0.0750943850128
0.0750943850056
0.0750943850128
0.0750943850128
0.0750943850056
0.0750943850128
0.0750943850128
0.0750943850056
0.0750943850128
0.0750943850128
0.0750943850056
0.0750943850128
0.207519936619
0.213732031164
0.220130084446
0.226719662941
0.233506499943
0.240496500538
0.247695746218
0.255110500865
0.262747215649
0.270612534948
0.278713302033
0.287056564915
0.295649582903
0.304499832297
0.313615013096
0.323003056419
0.332672129989
0.342630646636
0.352887270786
0.363450926246
0.374330804066
0.385536370103
0.397077374034
0.408963857145
0.421206161266
0.433814937785
0.446801157306
0.460176118303
0.473951457857
0.488139161178
0.502751572339
0.517801405097
0.533301753485
0.54926610371
0.565708345687
0.58264278493
0.600084155392
0.618047632146
0.636548844219
0.655603888868
0.67522934477
0.695442287451
0.716260303056
0.737701504494
0.759784546868
0.782528643407
0.805953582983
0.830079746406
0.39688851504
0.385353000304
0.37415276386
0.36327806073
0.352719429614
0.342467683793
0.332513903612
0.322849428828
0.313465850754
0.304355005225
0.295508965289
0.286920034386
0.278580739659
0.270483825474
0.262622247076
0.254989164527
0.247577936567
0.240382114959
0.23339543898
0.226611829902
0.220025385615
0.21363037539
0.207421235462
0.201392563281
0.195539113783
0.189855794022
0.18433765925
0.178979908368
0.173777879837
0.168727047609
0.163823017194
0.159061521806
0.154438418675
0.149949685454
0.145591416706
0.141359820493
0.137251215081
0.133262025785
0.129388781759
0.125628113088
0.121976747777
0.118431508946
0.114989312035
0.111647162144
0.108402151409
0.105251456515
0.102192336167
0.0992221287703
0.0718102063981
0.0718102063912
0.0718102063981
0.0718102063981
0.0718102063912
0.0718102063981
0.0718102063981
0.0718102063912
0.0718102063981
0.0718102063981
0.0718102063912
0.0718102063981
0.0718102063981
0.0718102063912
0.0718102063981
0.0718102063981
0.0718102063912
0.0718102063981
0.0718102063981
0.0718102063912
0.0718102063981
0.0718102063981
0.0718102063912
0.0718102063981
0.0718102063981
0.0718102063912
0.0718102063981
0.0718102063981
0.0718102063912
0.0718102063981
0.0718102063981
0.0718102063912
0.0718102063981
0.0718102063981
0.0718102063912
0.0718102063981
0.0718102063981
0.0718102063912
0.0718102063981
0.0718102063961
0.0718102063954
0.0718102063961
0.0718102063961
0.0718102063954
0.0718102063961
0.0718102063961
0.0718102063954
0.0718102063961
0.0718102063961
0.0718102063954
0.0718102063961
0.0718102063961
0.0718102063954
0.0718102063961
0.0718102063961
0.0718102063954
0.0718102063961
0.0718102063981
0.0718102063912
0.0718102063981
0.0718102063981
0.0718102063912
0.0718102063981
0.0718102063981
0.0718102063912
0.0718102063981
0.0718102063981
0.0718102063912
0.0718102063981
0.0718102063981
0.0718102063912
0.0718102063981
0.0718102063981
0.0718102063912
0.0718102063981
0.0718102063981
0.0718102063912
0.0718102063981
0.0718102063981
0.0718102063912
0.0718102063981
0.0718102063981
0.0718102063912
0.0718102063981
0.0718102063981
0.0718102063912
0.0718102063981
0.0718102063981
0.0718102063912
0.0718102063981
0.0718102063981
0.0718102063912
0.0718102063981
0.0718102063981
0.0718102063912
0.0718102063981
0.0718102063981
0.0718102063912
0.0718102063981
0.0718102063981
0.0718102063912
0.0718102063981
0.0718102063981
0.0718102063912
0.0718102063981
0.0718102063981
0.0718102063912
0.0718102063981
0.0718102063981
0.0718102063912
0.0718102063981
0.0718102063981
0.0718102063912
0.0718102063981
0.0718102063981
0.0718102063912
0.0718102063981
0.0718102063981
0.0718102063912
0.0718102063981
0.0718102063981
0.0718102063912
0.0718102063981
0.0718102063981
0.0718102063912
0.0718102063981
0.0718102063981
0.0718102063912
0.0718102063981
0.0718102063981
0.0718102063912
0.0718102063981
0.0718102063981
0.0718102063912
0.0718102063981
0.0718102063981
0.0718102063912
0.0718102063981
0.0718102063981
0.0718102063912
0.0718102063981
0.0718102063981
0.0718102063912
0.0718102063981
0.198444257554
0.204384672292
0.210502913045
0.216804302845
0.223294324247
0.229978624084
0.236863017879
0.243953495568
0.251256226189
0.258777563531
0.266524051585
0.274502430121
0.282719640971
0.291182833467
0.299899370853
0.308876837392
0.318123043598
0.327646034375
0.337454095217
0.34755575966
0.35795981679
0.368675318485
0.379711588031
0.391078227566
0.402785126631
0.414842470787
0.427260750849
0.440050771162
0.453223659873
0.466790878029
0.480764229849
0.495155873064
0.509978329055
0.525244494222
0.540967651016
0.557161479318
0.573840068703
0.591017930577
0.608710010449
0.626931701577
0.645698857587
0.665027807224
0.684935367517
0.705438859229
0.726556121598
0.748305527582
0.770706000608
0.793777030149
0.379530988485
0.368499968074
0.35778956289
0.347390454143
0.337293594313
0.327490198453
0.317971737
0.30872992846
0.29975673189
0.291044340176
0.282585173045
0.274371870538
0.266397286616
0.258654482962
0.251136722918
0.243837465683
0.236750360445
0.229869240976
0.223188120359
0.216701185713
0.210402793051
0.204287462271
0.198349872936
0.192584858768
0.186987404093
0.181552638699
0.176275834091
0.171152399144
0.166177876184
0.161347937107
0.156658379611
0.152105123513
0.147684207224
0.143391784309
0.139224120133
0.135177588594
0.131248668975
0.127433942927
0.123730091396
0.120133891848
0.116642215387
0.113252024069
0.109960368234
0.106764383963
0.103661290561
0.100648388192
0.0977230554454
0.0948827471311
0.0686696580647
0.0686696580581
0.0686696580647
0.0686696580647
0.0686696580581
0.0686696580647
0.0686696580647
0.0686696580581
0.0686696580647
0.0686696580647
0.0686696580581
0.0686696580647
0.0686696580647
0.0686696580581
0.0686696580647
0.0686696580647
0.0686696580581
0.0686696580647
0.0686696580647
0.0686696580581
0.0686696580647
0.0686696580647
0.0686696580581
0.0686696580647
0.0686696580647
0.0686696580581
0.0686696580647
0.0686696580647
0.0686696580581
0.0686696580647
0.0686696580647
0.0686696580581
0.0686696580647
0.0686696580647
0.0686696580581
0.0686696580647
0.0686696580647
0.0686696580581
0.0686696580647
0.0686696580627
0.0686696580621
0.0686696580627
0.0686696580627
0.0686696580621
0.0686696580627
0.0686696580627
0.0686696580621
0.0686696580627
0.0686696580627
0.0686696580621
0.0686696580627
0.0686696580627
0.0686696580621
0.0686696580627
0.0686696580627
0.0686696580621
0.0686696580627
0.0686696580647
0.0686696580581
0.0686696580647
0.0686696580647
0.0686696580581
0.0686696580647
0.0686696580647
0.0686696580581
0.0686696580647
0.0686696580647
0.0686696580581
0.0686696580647
0.0686696580647
0.0686696580581
0.0686696580647
0.0686696580647
0.0686696580581
0.0686696580647
0.0686696580647
0.0686696580581
0.0686696580647
0.0686696580647
0.0686696580581
0.0686696580647
0.0686696580647
0.0686696580581
0.0686696580647
0.0686696580647
0.0686696580581
0.0686696580647
0.0686696580647
0.0686696580581
0.0686696580647
0.0686696580647
0.0686696580581
0.0686696580647
0.0686696580647
0.0686696580581
0.0686696580647
0.0686696580647
0.0686696580581
0.0686696580647
0.0686696580647
0.0686696580581
0.0686696580647
0.0686696580647
0.0686696580581
0.0686696580647
0.0686696580647
0.0686696580581
0.0686696580647
0.0686696580647
0.0686696580581
0.0686696580647
0.0686696580647
0.0686696580581
0.0686696580647
0.0686696580647
0.0686696580581
0.0686696580647
0.0686696580647
0.0686696580581
0.0686696580647
0.0686696580647
0.0686696580581
0.0686696580647
0.0686696580647
0.0686696580581
0.0686696580647
0.0686696580647
0.0686696580581
0.0686696580647
0.0686696580647
0.0686696580581
0.0686696580647
0.0686696580647
0.0686696580581
0.0686696580647
0.0686696580647
0.0686696580581
0.0686696580647
0.0686696580647
0.0686696580581
0.0686696580647
0.0686696580647
0.0686696580581
0.0686696580647
0.189765494275
0.195446110851
0.201296776398
0.207322581149
0.213528767886
0.219920736482
0.226504048125
0.233284430788
0.24026778371
0.247460182805
0.254867885867
0.262497337911
0.270355177174
0.278448240318
0.286783568566
0.295368414488
0.304210247013
0.313316759209
0.322695874213
0.332355752356
0.34230479834
0.35255166817
0.363105277385
0.373974808185
0.385169717602
0.39669974574
0.408574924608
0.420805586037
0.433402371493
0.446376240785
0.459738481887
0.473500720824
0.487674931366
0.502273445902
0.51730896599
0.532794573232
0.548743741011
0.56517034609
0.582088680352
0.599513463846
0.617459856854
0.635943474001
0.65498039684
0.674587188626
0.694780908417
0.715579125648
0.736999936148
0.759061977036
0.362932576277
0.352383986628
0.342141990416
0.332197676399
0.322542392743
0.3131677387
0.304065557739
0.29522793055
0.286647167852
0.278315803968
0.270226590141
0.262372488291
0.254746664906
0.247342485107
0.24015350686
0.233173475417
0.226396317713
0.219816137195
0.213427208777
0.207223973798
0.201201035106
0.195353152266
0.189675237525
0.184162350547
0.178809695013
0.173612613705
0.168566584925
0.163667218335
0.158910251215
0.154291544743
0.149807080404
0.145452956455
0.141225384565
0.137120686519
0.133135291011
0.129265730525
0.125508638318
0.121860745538
0.118318878289
0.11487995497
0.111540983523
0.108299058868
0.105151360344
0.102095149281
0.0991277665992
0.0962466305337
0.0934492343197
0.0907331440788
0.0656664585229
0.0656664585166
0.0656664585229
0.0656664585229
0.0656664585166
0.0656664585229
0.0656664585229
0.0656664585166
0.0656664585229
0.0656664585229
0.0656664585166
0.0656664585229
0.0656664585229
0.0656664585166
0.0656664585229
0.0656664585229
0.0656664585166
0.0656664585229
0.0656664585229
0.0656664585166
0.0656664585229
0.0656664585229
0.0656664585166
0.0656664585229
0.0656664585229
0.0656664585166
0.0656664585229
0.0656664585229
0.0656664585166
0.0656664585229
0.0656664585229
0.0656664585166
0.0656664585229
0.0656664585229
0.0656664585166
0.0656664585229
0.0656664585229
0.0656664585166
0.0656664585229
0.065666458521
0.0656664585204
0.065666458521
0.065666458521
0.0656664585204
0.065666458521
0.065666458521
0.0656664585204
0.065666458521
0.065666458521
0.0656664585204
0.065666458521
0.065666458521
0.0656664585204
0.065666458521
0.065666458521
0.0656664585204
0.065666458521
0.0656664585229
0.0656664585166
0.0656664585229
0.0656664585229
0.0656664585166
0.0656664585229
0.0656664585229
0.0656664585166
0.0656664585229
0.0656664585229
0.0656664585166
0.0656664585229
0.0656664585229
0.0656664585166
0.0656664585229
0.0656664585229
0.0656664585166
0.0656664585229
0.0656664585229
0.0656664585166
0.0656664585229
0.0656664585229
0.0656664585166
0.0656664585229
0.0656664585229
0.0656664585166
0.0656664585229
0.0656664585229
0.0656664585166
0.0656664585229
0.0656664585229
0.0656664585166
0.0656664585229
0.0656664585229
0.0656664585166
0.0656664585229
0.0656664585229
0.0656664585166
0.0656664585229
0.0656664585229
0.0656664585166
0.0656664585229
0.0656664585229
0.0656664585166
0.0656664585229
0.0656664585229
0.0656664585166
0.0656664585229
0.0656664585229
0.0656664585166
0.0656664585229
0.0656664585229
0.0656664585166
0.0656664585229
0.0656664585229
0.0656664585166
0.0656664585229
0.0656664585229
0.0656664585166
0.0656664585229
0.0656664585229
0.0656664585166
0.0656664585229
0.0656664585229
0.0656664585166
0.0656664585229
0.0656664585229
0.0656664585166
0.0656664585229
0.0656664585229
0.0656664585166
0.0656664585229
0.0656664585229
0.0656664585166
0.0656664585229
0.0656664585229
0.0656664585166
0.0656664585229
0.0656664585229
0.0656664585166
0.0656664585229
0.0656664585229
0.0656664585166
0.0656664585229
0.0656664585229
0.0656664585166
0.0656664585229
0.18146628817
0.186898468602
0.19249326108
0.198255533224
0.204190298525
0.2103027207
0.216598117723
0.22308196706
0.229759909952
0.23663775659
0.243721491089
0.251017276598
0.258531461037