# Force coefficients
# dragDir           : (9.902680813243e-01 1.391730114294e-01 0.000000000000e+00)
# sideDir           : (0.000000000000e+00 0.000000000000e+00 -1.000000000000e+00)
# liftDir           : (-1.391730114294e-01 9.902680813243e-01 0.000000000000e+00)
# rollAxis          : (9.902680813243e-01 1.391730114294e-01 0.000000000000e+00)
# pitchAxis         : (0.000000000000e+00 0.000000000000e+00 -1.000000000000e+00)
# yawAxis           : (-1.391730114294e-01 9.902680813243e-01 0.000000000000e+00)
# magUInf           : 6.000000000000e+01
# lRef              : 1.000000000000e+00
# Aref              : 1.000000000000e+00
# CofR              : (0.000000000000e+00 0.000000000000e+00 5.000000000000e-01)
#
# Time              	Cd                  	Cs                  	Cl                  	CmRoll              	CmPitch             	CmYaw               	Cd(f)               	Cd(r)               	Cs(f)               	Cs(r)               	Cl(f)               	Cl(r)               
6.32518e-05         	1.462660883649e+01	-6.642255416777e-17	6.395966189280e+01	1.331698716399e-15	-3.274945722529e+01	-3.928005572583e-16	7.313304418244e+00	7.313304418244e+00	-4.260118343422e-16	3.595892801744e-16	-7.696262788938e-01	6.472928817170e+01
0.000129784         	-7.568870893616e+00	3.341168366354e-16	-3.278497738819e+01	3.200667173352e-15	1.701259854281e+01	-6.180255428727e-16	-3.784435446808e+00	-3.784435446808e+00	-4.509671245550e-16	7.850839611904e-16	6.201098487140e-01	-3.340508723690e+01
0.000206139         	2.259748095851e-01	-1.027022740094e-16	1.083310936336e+00	-1.236254743950e-16	-4.117356269489e-01	-2.208708726027e-17	1.129874047925e-01	1.129874047925e-01	-7.343822426497e-17	-2.926404974444e-17	1.299198412190e-01	9.533910951168e-01
0.000294695         	3.757696307761e-02	-4.421629227008e-16	3.013823410972e-01	-1.933995623131e-17	-9.028579225620e-04	-2.034772401253e-16	1.878848153880e-02	1.878848153880e-02	-4.245587014756e-16	-1.760422122514e-17	1.497883126260e-01	1.515940284712e-01
0.000396606         	5.802109240475e-02	-6.032501452747e-17	4.248926552039e-01	1.138231173184e-17	-7.221257255671e-02	-2.460290807758e-17	2.901054620237e-02	2.901054620237e-02	-5.476541534132e-17	-5.559599186154e-18	1.402337550452e-01	2.846589001587e-01
0.000511965         	5.858408675444e-02	-2.359504426473e-17	4.462861114815e-01	6.552114536791e-18	-8.305362062784e-02	-1.424376871507e-17	2.929204337722e-02	2.929204337722e-02	-2.604129084744e-17	2.446246582710e-18	1.400894351129e-01	3.061966763686e-01
0.000640932         	5.953289977038e-02	-4.990574995085e-17	4.723516878951e-01	6.855958105038e-18	-9.907566524826e-02	-2.504169175713e-17	2.976644988519e-02	2.976644988519e-02	-4.999456673256e-17	8.881678170869e-20	1.371001786993e-01	3.352515091958e-01
0.00077745          	6.002385504589e-02	1.933678772282e-16	4.919513452360e-01	-4.496734736855e-17	-1.115720314832e-01	9.867359907039e-17	3.001192752294e-02	3.001192752294e-02	1.953575376845e-16	-1.989660456288e-18	1.344036411348e-01	3.575477041012e-01
0.000914685         	6.026493602896e-02	-6.619252887332e-17	5.016533973725e-01	-5.752680881533e-17	-1.171520673401e-01	-2.317234219386e-17	3.013246801448e-02	3.013246801448e-02	-5.626860663052e-17	-9.923922242800e-18	1.336746313461e-01	3.679787660264e-01
0.00105563          	5.820288269912e-02	-2.619843375643e-16	4.931438185183e-01	-3.164318701535e-18	-1.106161809377e-01	-1.256041383817e-16	2.910144134956e-02	2.910144134956e-02	-2.565963071639e-16	-5.388030400390e-18	1.359557283214e-01	3.571880901969e-01
0.00120514          	5.602926665245e-02	-3.689080096632e-17	4.887521551349e-01	1.338440229650e-18	-1.058501999728e-01	-2.024519857971e-17	2.801463332623e-02	2.801463332623e-02	-3.869059906287e-17	1.799798096550e-18	1.385258775946e-01	3.502262775402e-01
0.0013669           	5.563980375415e-02	1.486802475084e-16	4.929869994674e-01	-3.676495549967e-17	-1.077851477353e-01	7.739411097497e-17	2.781990187708e-02	2.781990187708e-02	1.517342347292e-16	-3.053987220769e-18	1.387083519984e-01	3.542786474690e-01
0.00152312          	5.649647355271e-02	-2.338546893043e-16	5.028094487187e-01	-3.227543159517e-18	-1.138993114518e-01	-1.105457450885e-16	2.824823677635e-02	2.824823677635e-02	-2.274730897407e-16	-6.381599563621e-18	1.375054129076e-01	3.653040358111e-01
0.00167945          	5.766252837412e-02	-2.599765031823e-17	5.159077563600e-01	1.378201256231e-17	-1.216362941952e-01	-9.616461618721e-18	2.883126418706e-02	2.883126418706e-02	-2.261528677783e-17	-3.382363540393e-18	1.363175839848e-01	3.795901723752e-01
0.00184366          	5.850989368593e-02	1.447282745355e-16	5.263977139820e-01	-4.731654828316e-17	-1.274876292222e-01	7.165727476525e-17	2.925494684297e-02	2.925494684297e-02	1.440214120330e-16	7.068625025022e-19	1.357112277688e-01	3.906864862132e-01
0.00201979          	5.913361756418e-02	-2.093686640972e-16	5.340529415890e-01	6.032187893565e-19	-1.313337895826e-01	-9.397050229812e-17	2.956680878209e-02	2.956680878209e-02	-1.986548343467e-16	-1.071382975048e-17	1.356926812119e-01	3.983602603771e-01
0.00220069          	5.954770946843e-02	1.305077643906e-16	5.395226268002e-01	-5.508488979963e-17	-1.333800843083e-01	6.475748998924e-17	2.977385473422e-02	2.977385473422e-02	1.300113721845e-16	4.963922060614e-19	1.363812290919e-01	4.031413977084e-01
0.00238705          	5.929093184616e-02	-1.893365802725e-16	5.426487580815e-01	-5.605547363916e-18	-1.338873010785e-01	-8.816298436197e-17	2.964546592308e-02	2.964546592308e-02	-1.828312744982e-16	-6.505305774291e-18	1.374370779622e-01	4.052116801193e-01
0.00257012          	5.926746076592e-02	-3.397385842870e-17	5.467159962592e-01	1.008422178107e-17	-1.350997810108e-01	-1.837207640365e-17	2.963373038296e-02	2.963373038296e-02	-3.535900561800e-17	1.385147189303e-18	1.382582171188e-01	4.084577791403e-01
0.00274902          	5.918623930260e-02	-1.924502684031e-17	5.519573146202e-01	5.835851656560e-18	-1.372620080188e-01	-8.572096431824e-18	2.959311965130e-02	2.959311965130e-02	-1.819460985198e-17	-1.050416988331e-18	1.387166492913e-01	4.132406653289e-01
0.00292731          	5.919078400383e-02	-3.738880155356e-17	5.577340746891e-01	1.242500873836e-17	-1.398117279334e-01	-1.776836415589e-17	2.959539200192e-02	2.959539200192e-02	-3.646276493267e-17	-9.260366208934e-19	1.390553094111e-01	4.186787652779e-01
0.0031091           	5.912196019620e-02	-2.305929781212e-17	5.636208751312e-01	9.547317310024e-18	-1.423064787734e-01	-8.183447817268e-18	2.956098009810e-02	2.956098009810e-02	-1.971309672333e-17	-3.346201088791e-18	1.395039587923e-01	4.241169163390e-01
0.00329751          	5.888938073351e-02	-2.607460300776e-17	5.676974694214e-01	1.125449794240e-17	-1.438784297581e-01	-1.259521406190e-17	2.944469036675e-02	2.944469036675e-02	-2.563251556578e-17	-4.420874419803e-19	1.399703049526e-01	4.277271644688e-01
0.00349305          	5.868757853646e-02	-1.864145971636e-17	5.713241430660e-01	1.203982068822e-17	-1.449230190215e-01	-8.227060993019e-18	2.934378926823e-02	2.934378926823e-02	-1.754779085120e-17	-1.093668865160e-18	1.407390525115e-01	4.305850905545e-01
0.00369345          	5.846994186426e-02	-1.860505441879e-17	5.745934431427e-01	1.131085234995e-17	-1.457100926026e-01	-7.166769632135e-18	2.923497093213e-02	2.923497093213e-02	-1.646929684153e-17	-2.135757577262e-18	1.415866289687e-01	4.330068141740e-01
0.00389572          	5.834541767945e-02	-3.705472143799e-17	5.776924347104e-01	1.629321033916e-17	-1.463966914402e-01	-1.939700877814e-17	2.917270883973e-02	2.917270883973e-02	-3.792436949714e-17	8.696480591458e-19	1.424495259150e-01	4.352429087954e-01
0.004098            	5.832811540993e-02	-1.299242698781e-17	5.818296017608e-01	8.831983336885e-18	-1.476954581948e-01	-6.301511482159e-18	2.916405770497e-02	2.916405770497e-02	-1.279772497607e-17	-1.947020117470e-19	1.432193426856e-01	4.386102590752e-01
0.00430028          	5.852091514244e-02	-3.199946682216e-17	5.857476417167e-01	1.328464523712e-17	-1.489550310274e-01	-1.491173049867e-17	2.926045757122e-02	2.926045757122e-02	-3.091146390975e-17	-1.088002912414e-18	1.439187898310e-01	4.418288518857e-01
0.00450416          	5.873594722692e-02	-2.318647514837e-17	5.908041779346e-01	1.381232173337e-17	-1.508297360324e-01	-1.132924008078e-17	2.936797361346e-02	2.936797361346e-02	-2.292247765496e-17	-2.639974934060e-19	1.445723529350e-01	4.462318249997e-01
0.00471082          	5.902836151572e-02	-1.501199194620e-17	5.954534084744e-01	9.051154456365e-18	-1.524412646964e-01	-7.059503557956e-18	2.951418075786e-02	2.951418075786e-02	-1.456549953106e-17	-4.464924151443e-19	1.452854395407e-01	4.501679689336e-01
0.00492086          	5.935502051270e-02	-2.301564579963e-17	6.002024380919e-01	9.474105736554e-18	-1.540164256594e-01	-8.855122587704e-18	2.967751025635e-02	2.967751025635e-02	-2.036294548752e-17	-2.652700312113e-18	1.460847933865e-01	4.541176447053e-01
0.00513368          	5.960545961331e-02	-2.476456472592e-17	6.043842945709e-01	1.741751456655e-17	-1.552520158244e-01	-1.167354529099e-17	2.980272980665e-02	2.980272980665e-02	-2.405582765395e-17	-7.087370719677e-19	1.469401314611e-01	4.574441631098e-01
0.00534793          	5.987404197722e-02	-1.498523573830e-17	6.087827883195e-01	6.664184385733e-18	-1.565845070819e-01	-6.821866560105e-18	2.993702098861e-02	2.993702098861e-02	-1.431448442925e-17	-6.707513090428e-19	1.478068870779e-01	4.609759012417e-01
0.00556253          	5.982647180514e-02	-2.194237732935e-17	6.098961174457e-01	9.904847315312e-18	-1.564111020469e-01	-1.182466951085e-17	2.991323590257e-02	2.991323590257e-02	-2.279585817553e-17	8.534808461793e-19	1.485369566759e-01	4.613591607698e-01
0.0057775           	6.041388111668e-02	-2.195537079157e-17	6.175438360508e-01	1.528044211264e-17	-1.593390258772e-01	-8.152244582135e-18	3.020694055834e-02	3.020694055834e-02	-1.912992997792e-17	-2.825440813648e-18	1.494328921481e-01	4.681109439026e-01
0.00599337          	6.068324423504e-02	1.012335160814e-16	6.222798936054e-01	-5.337905147358e-17	-1.609341709373e-01	5.235207821904e-17	3.034162211752e-02	3.034162211752e-02	1.029688362597e-16	-1.735320178365e-18	1.502057758654e-01	4.720741177400e-01
0.00621126          	6.084914370391e-02	-3.429373772210e-17	6.262805854566e-01	-6.928867659357e-17	-1.621332336149e-01	-9.841926005072e-18	3.042457185196e-02	3.042457185196e-02	-2.698879486612e-17	-7.304942855977e-18	1.510070591134e-01	4.752735263433e-01
0.00643159          	6.115647663037e-02	-3.845103187214e-17	6.309564822707e-01	-6.489684819605e-17	-1.635966260675e-01	-1.264503593686e-17	3.057823831519e-02	3.057823831519e-02	-3.187055187293e-17	-6.580479999208e-18	1.518816150678e-01	4.790748672028e-01
0.00665404          	6.011012853388e-02	-1.428485985991e-16	6.317459239820e-01	3.568186944508e-18	-1.630466932403e-01	-6.682750028248e-17	3.005506426694e-02	3.005506426694e-02	-1.382517995821e-16	-4.596799017083e-18	1.528262687507e-01	4.789196552313e-01
0.00687785          	6.180260445280e-02	-1.458410340237e-17	6.406497911706e-01	1.100545210806e-17	-1.667541502333e-01	-7.944314474251e-18	3.090130222640e-02	3.090130222640e-02	-1.523636617544e-17	6.522627730638e-19	1.535707453520e-01	4.870790458185e-01
0.00710245          	6.183891187450e-02	-2.234568512907e-17	6.442811030657e-01	1.024858892578e-17	-1.676560353615e-01	-9.623471656317e-18	3.091945593725e-02	3.091945593725e-02	-2.079631422085e-17	-1.549370908217e-18	1.544845161713e-01	4.897965868944e-01
0.00732725          	6.213736914759e-02	-1.745641246730e-17	6.488518192623e-01	1.021473714570e-17	-1.690787938556e-01	-1.019397509091e-17	3.106868457379e-02	3.106868457379e-02	-1.892218132456e-17	1.465768857259e-18	1.553471157755e-01	4.935047034868e-01
0.00755265          	6.240752934542e-02	-1.701191032882e-17	6.535527325584e-01	6.662781010587e-18	-1.705663034807e-01	-8.558808043894e-18	3.120376467271e-02	3.120376467271e-02	-1.706476320830e-17	5.285287948418e-20	1.562100627985e-01	4.973426697599e-01
0.00777884          	6.204719905328e-02	-2.562777865527e-17	6.556783191438e-01	1.099469711036e-17	-1.706984109839e-01	-1.208910822446e-17	3.102359952664e-02	3.102359952664e-02	-2.490299755210e-17	-7.247811031701e-19	1.571407485881e-01	4.985375705558e-01
0.00800626          	6.285235020521e-02	-1.858254106333e-17	6.619481509868e-01	8.227302440177e-18	-1.730700443760e-01	-9.243596064648e-18	3.142617510261e-02	3.142617510261e-02	-1.853486659631e-17	-4.767446701713e-20	1.579040311173e-01	5.040441198694e-01
0.0082349           	6.299571459733e-02	-1.761143805143e-17	6.658286916875e-01	1.284866887868e-17	-1.741188276046e-01	-7.961936862974e-18	3.149785729866e-02	3.149785729866e-02	-1.676765588869e-17	-8.437821627426e-19	1.587955182391e-01	5.070331734484e-01
0.00846458          	6.298053253587e-02	-2.101234270017e-17	6.688993154068e-01	8.756084381041e-18	-1.746988473493e-01	-1.132363459390e-17	3.149026626793e-02	3.149026626793e-02	-2.182980594398e-17	8.174632438137e-19	1.597508103541e-01	5.091485050527e-01
0.00869488          	6.344410352175e-02	-1.846356933084e-17	6.741289622387e-01	5.079943101749e-18	-1.765128067833e-01	-9.684828475445e-18	3.172205176087e-02	3.172205176087e-02	-1.891661314086e-17	4.530438100273e-19	1.605516743360e-01	5.135772879027e-01
0.00892603          	6.358004807877e-02	-2.445932432141e-17	6.780178184137e-01	1.169894702236e-17	-1.775688067985e-01	-1.348374920677e-17	3.179002403938e-02	3.179002403938e-02	-2.571341136747e-17	1.254087046063e-18	1.614401024084e-01	5.165777160053e-01
0.00915781          	6.389765000706e-02	-1.323440593819e-17	6.827812186588e-01	6.451733032537e-18	-1.790694539438e-01	-6.499730637976e-18	3.194882500353e-02	3.194882500353e-02	-1.311693360707e-17	-1.174723311185e-19	1.623211553856e-01	5.204600632732e-01
0.00939066          	6.338674692037e-02	-2.742672197448e-17	6.837486527124e-01	1.936529043706e-17	-1.786038888088e-01	-9.939350619473e-18	3.169337346019e-02	3.169337346019e-02	-2.365271160671e-17	-3.774010367767e-18	1.632704375474e-01	5.204782151650e-01
0.00962437          	6.415666974279e-02	-1.813857023162e-17	6.900913192680e-01	1.328584957799e-17	-1.809992596718e-01	-9.187601234230e-18	3.207833487140e-02	3.207833487140e-02	-1.825688635004e-17	1.183161184210e-19	1.640463999622e-01	5.260449193058e-01
0.00985917          	6.430197905478e-02	-1.810973614014e-17	6.939413547816e-01	1.793607814119e-17	-1.820232365734e-01	-7.558819633168e-18	3.215098952739e-02	3.215098952739e-02	-1.661368770324e-17	-1.496048436900e-18	1.649474408174e-01	5.289939139641e-01
0.0100951           	6.370745650631e-02	9.980042530587e-17	6.955996084931e-01	-7.193457143826e-17	-1.819025850591e-01	5.022514302874e-17	3.185372825316e-02	3.185372825316e-02	1.001253556817e-16	-3.249303758082e-19	1.658972191874e-01	5.297023893057e-01
0.0103319           	6.485672988056e-02	-1.346943831969e-16	7.024117833033e-01	-4.018785185292e-18	-1.845204382779e-01	-6.452701626681e-17	3.242836494028e-02	3.242836494028e-02	-1.318742078652e-16	-2.820175331634e-18	1.666854533738e-01	5.357263299296e-01
0.0105693           	6.429018975882e-02	9.578656268210e-17	7.029233914592e-01	-6.914469145118e-17	-1.838107097825e-01	5.045587982198e-17	3.214509487941e-02	3.214509487941e-02	9.834916116303e-17	-2.562598480931e-18	1.676509859471e-01	5.352724055121e-01
0.0108074           	6.468557889108e-02	-1.435347286901e-16	7.081527210344e-01	1.055542261093e-17	-1.855872617322e-01	-6.560941383880e-17	3.234278944554e-02	3.234278944554e-02	-1.373767781838e-16	-6.157950506230e-18	1.684890987850e-01	5.396636222494e-01
0.0110465           	6.534074600511e-02	-1.714267058730e-17	7.135021252570e-01	9.066337944290e-18	-1.874374414623e-01	-1.214949864240e-17	3.267037300255e-02	3.267037300255e-02	-2.072083393604e-17	3.578163348747e-18	1.693136211662e-01	5.441885040909e-01
0.0112862           	6.547066948782e-02	9.739398060967e-17	7.172432549617e-01	-7.405382120140e-17	-1.884204958065e-01	5.191515656224e-17	3.273533474391e-02	3.273533474391e-02	1.006121468671e-16	-3.218166257409e-18	1.702011316744e-01	5.470421232873e-01
0.0115266           	6.568796339443e-02	-1.475578783567e-16	7.211816085843e-01	8.260626892389e-18	-1.895017320118e-01	-6.740004932035e-17	3.284398169722e-02	3.284398169722e-02	-1.411789884987e-16	-6.378889857997e-18	1.710890722804e-01	5.500925363039e-01
0.0117677           	6.557222746104e-02	-1.723775613634e-17	7.235262341374e-01	1.369268079655e-17	-1.897928527404e-01	-6.470186689791e-18	3.278611373052e-02	3.278611373052e-02	-1.508906475796e-17	-2.148691378380e-18	1.719702643283e-01	5.515559698092e-01
0.0120095           	6.580077414061e-02	-2.190325333516e-17	7.274547785367e-01	1.111240062017e-17	-1.908376107174e-01	-1.378089243085e-17	3.290038707031e-02	3.290038707031e-02	-2.473251909842e-17	2.829265763267e-18	1.728897785510e-01	5.545649999857e-01
0.0122518           	6.687418465641e-02	-1.668030058912e-17	7.327196124045e-01	1.792087738918e-17	-1.926805221874e-01	-7.321072107535e-18	3.343709232820e-02	3.343709232820e-02	-1.566122240210e-17	-1.019078187025e-18	1.736792840149e-01	5.590403283896e-01
0.0124948           	6.645882216992e-02	-1.934750568309e-17	7.362190313626e-01	2.293163286509e-17	-1.934671127574e-01	-7.730646792784e-18	3.322941108496e-02	3.322941108496e-02	-1.740439963433e-17	-1.943106048763e-18	1.746424029239e-01	5.615766284387e-01
0.0127383           	6.692279374476e-02	9.353567184961e-17	7.412513205649e-01	-7.461669389283e-17	-1.950747783485e-01	4.502619550721e-17	3.346139687238e-02	3.346139687238e-02	9.179403143201e-17	1.741640417599e-18	1.755508819339e-01	5.657004386309e-01
0.0129822           	6.691976550161e-02	-1.382147956519e-16	7.437928787848e-01	1.053776877473e-17	-1.954561813164e-01	-6.129161183276e-17	3.345988275081e-02	3.345988275081e-02	-1.303990096587e-16	-7.815785993210e-18	1.764402580760e-01	5.673526207088e-01
0.0132269           	6.712560732728e-02	-1.831403809690e-17	7.476565422769e-01	1.278144033448e-17	-1.965101539476e-01	-9.542544423668e-18	3.356280366364e-02	3.356280366364e-02	-1.869956347212e-17	3.855253752162e-19	1.773181171908e-01	5.703384250861e-01
0.013472            	6.727769108860e-02	-1.569462064960e-17	7.512638433221e-01	1.293258234616e-17	-1.973952115292e-01	-6.427810950541e-18	3.363884554430e-02	3.363884554430e-02	-1.427512127534e-17	-1.419499374259e-18	1.782367101318e-01	5.730271331903e-01
0.0137174           	6.684299521139e-02	-1.643535328542e-17	7.518207604476e-01	7.826073965917e-18	-1.967723147551e-01	-7.661284614278e-18	3.342149760569e-02	3.342149760569e-02	-1.587896125699e-17	-5.563920284339e-19	1.791380654687e-01	5.726826949788e-01
0.0139633           	6.760661875746e-02	-2.167551832619e-17	7.582526270699e-01	1.221594426490e-17	-1.991314513026e-01	-1.277281244170e-17	3.380330937873e-02	3.380330937873e-02	-2.361057160479e-17	1.935053278603e-18	1.799948622323e-01	5.782577648375e-01
0.0142094           	6.776472205008e-02	8.391968089904e-17	7.616507843940e-01	-7.164334239981e-17	-1.999776485058e-01	4.803771260455e-17	3.388236102504e-02	3.388236102504e-02	8.999755305407e-17	-6.077872155034e-18	1.808477436912e-01	5.808030407028e-01
0.014456            	6.795978347279e-02	-1.318549585657e-16	7.653415712178e-01	7.048858613493e-19	-2.009230629108e-01	-6.035442632776e-17	3.397989173639e-02	3.397989173639e-02	-1.262819056106e-16	-5.573052955078e-18	1.817477226981e-01	5.835938485197e-01
0.0147031           	6.814187933099e-02	-1.387905447348e-17	7.689500481502e-01	4.434872124538e-18	-2.018590001555e-01	-7.947462886220e-18	3.407093966549e-02	3.407093966549e-02	-1.488699012296e-17	1.007935649481e-18	1.826160239196e-01	5.863340242307e-01
0.0149507           	6.831253898226e-02	-2.253161436197e-17	7.724535303356e-01	1.652089048611e-17	-2.027052789448e-01	-1.079765492471e-17	3.415626949113e-02	3.415626949113e-02	-2.206346210570e-17	-4.681522562743e-19	1.835214862231e-01	5.889320441126e-01
0.0151985           	6.850180219021e-02	-1.625971968801e-17	7.761268861557e-01	1.506935759750e-17	-2.036598562649e-01	-1.086082746580e-17	3.425090109510e-02	3.425090109510e-02	-1.899068730980e-17	2.730967621792e-18	1.844035868129e-01	5.917232993428e-01
0.0154468           	6.862728748833e-02	-1.610091564040e-17	7.793746528596e-01	1.087786632150e-17	-2.043721520158e-01	-7.003534073839e-18	3.431364374416e-02	3.431364374416e-02	-1.505399189404e-17	-1.046923746361e-18	1.853151744140e-01	5.940594784456e-01
0.0156954           	6.882618570681e-02	-1.349860427263e-17	7.827139791924e-01	8.939408851120e-18	-2.051609424044e-01	-6.578141903175e-18	3.441309285340e-02	3.441309285340e-02	-1.332744403949e-17	-1.711602331425e-19	1.861960471918e-01	5.965179320006e-01
0.0159443           	6.890821135528e-02	-2.332262879216e-17	7.859726312845e-01	2.090788521830e-17	-2.058712414833e-01	-9.013013710930e-18	3.445410567764e-02	3.445410567764e-02	-2.067432810701e-17	-2.648300685150e-18	1.871150741590e-01	5.988575571255e-01
0.0161934           	6.850215435395e-02	8.546944031001e-17	7.864156115316e-01	-7.583316960720e-17	-2.052052009561e-01	4.334825977802e-17	3.425107717698e-02	3.425107717698e-02	8.608297993302e-17	-6.135396230133e-19	1.880026048097e-01	5.984130067218e-01
0.0164427           	6.909053949763e-02	-1.926491227985e-17	7.920046469543e-01	-9.028469888907e-17	-2.071093266134e-01	-6.754956835991e-19	3.454526974881e-02	3.454526974881e-02	-1.030795182353e-17	-8.956960456328e-18	1.888929968638e-01	6.031116500905e-01
0.0166923           	6.916009680981e-02	-1.317044794009e-16	7.949400436413e-01	4.466510015244e-18	-2.076885547880e-01	-5.895345221342e-17	3.458004840491e-02	3.458004840491e-02	-1.248056919139e-16	-6.898787487030e-18	1.897814670326e-01	6.051585766087e-01
0.0169422           	6.926297846066e-02	8.235724262633e-17	7.980381086051e-01	-7.239664259439e-17	-2.083332780730e-01	4.243169490407e-17	3.463148923033e-02	3.463148923033e-02	8.361031621724e-17	-1.253073590903e-18	1.906857762296e-01	6.073523323756e-01
0.0171923           	6.936896608095e-02	-1.192723052254e-16	8.011354772138e-01	2.977632161071e-18	-2.089976054286e-01	-5.692410471406e-17	3.468448304048e-02	3.468448304048e-02	-1.165602573268e-16	-2.712047898646e-18	1.915701331783e-01	6.095653440355e-01
0.0174426           	6.952560379169e-02	-1.984011274854e-17	8.045204881687e-01	2.184246531171e-17	-2.097978130402e-01	-6.694344509636e-18	3.476280189584e-02	3.476280189584e-02	-1.661440088390e-17	-3.225711864632e-18	1.924624310442e-01	6.120580571245e-01
0.017693            	6.975602768849e-02	-1.938281420639e-17	8.078999878405e-01	1.428790373539e-17	-2.106354372870e-01	-1.186090891108e-17	3.487801384424e-02	3.487801384424e-02	-2.155231601428e-17	2.169501807889e-18	1.933145566332e-01	6.145854312073e-01
0.0179436           	6.996577826816e-02	-1.887439690499e-17	8.111842595726e-01	1.860017295520e-17	-2.114144379971e-01	-8.518736488820e-18	3.498288913408e-02	3.498288913408e-02	-1.795593494131e-17	-9.184619636734e-19	1.941776917892e-01	6.170065677835e-01
0.0181945           	7.013319456125e-02	-2.317569132598e-17	8.144810349160e-01	2.236090894872e-17	-2.122183310034e-01	-1.186174785139e-17	3.506659728062e-02	3.506659728062e-02	-2.344959351438e-17	2.739021884049e-19	1.950221864546e-01	6.194588484613e-01
0.0184454           	7.023062976236e-02	-2.144478841111e-17	8.173681745474e-01	2.703246867019e-17	-2.128063496821e-01	-8.575376570960e-18	3.511531488118e-02	3.511531488118e-02	-1.929777077652e-17	-2.147017634596e-18	1.958777375916e-01	6.214904369558e-01
0.0186965           	7.052777882619e-02	-1.799091630860e-17	8.210486063911e-01	1.924342649051e-17	-2.138378776863e-01	-1.267685923677e-17	3.526388941309e-02	3.526388941309e-02	-2.167231739108e-17	3.681401082472e-18	1.966864255092e-01	6.243621808819e-01
0.0189479           	7.073204991592e-02	-1.742858694517e-17	8.243656584450e-01	1.204091284834e-17	-2.146603333276e-01	-1.063130945390e-17	3.536602495796e-02	3.536602495796e-02	-1.934560292649e-17	1.917015981318e-18	1.975224958949e-01	6.268431625500e-01
0.0191993           	7.092699638527e-02	-1.927508481925e-17	8.276292764149e-01	2.209434784824e-17	-2.154781006221e-01	-1.216720844943e-17	3.546349819264e-02	3.546349819264e-02	-2.180475085905e-17	2.529666039806e-18	1.983365375853e-01	6.292927388295e-01
0.019451            	7.063755335201e-02	-1.253760041925e-17	8.276237234610e-01	1.303260202863e-17	-2.147217531006e-01	-4.989512659604e-18	3.531877667600e-02	3.531877667600e-02	-1.125831286923e-17	-1.279287550023e-18	1.990901086299e-01	6.285336148311e-01
0.0197027           	7.131869415638e-02	-1.698884157094e-17	8.338570537718e-01	1.632710396479e-17	-2.169671283523e-01	-8.839636217572e-18	3.565934707819e-02	3.565934707819e-02	-1.733405700304e-17	3.452154321042e-19	1.999613985336e-01	6.338956552382e-01
0.0199543           	7.119801236017e-02	-1.882507807851e-17	8.356398447561e-01	1.312821039315e-17	-2.170521318932e-01	-9.768451303014e-18	3.559900618009e-02	3.559900618009e-02	-1.918099034227e-17	3.559122637593e-19	2.007677904848e-01	6.348720542712e-01
0.020206            	7.160185610450e-02	-1.836061399249e-17	8.401606487536e-01	8.525934694622e-18	-2.184829145317e-01	-1.163069011881e-17	3.580092805225e-02	3.580092805225e-02	-2.081099711505e-17	2.450383122569e-18	2.015974098450e-01	6.385632389085e-01
0.0204576           	7.168450968972e-02	-1.976527137394e-17	8.431126239301e-01	2.010135613457e-17	-2.191257807529e-01	-9.824047276412e-18	3.584225484486e-02	3.584225484486e-02	-1.970668296338e-17	-5.858841055622e-20	2.024305312121e-01	6.406820927180e-01
0.0207093           	7.179606851345e-02	-1.515709706677e-17	8.462177709393e-01	1.304881919660e-17	-2.198463460815e-01	-9.357406562400e-18	3.589803425672e-02	3.589803425672e-02	-1.693595509578e-17	1.778858029016e-18	2.032625393881e-01	6.429552315512e-01
0.0209607           	7.187272732037e-02	-1.810565441073e-17	8.490907427154e-01	1.470529912021e-17	-2.204418010910e-01	-9.128002288684e-18	3.593636366018e-02	3.593636366018e-02	-1.818082949405e-17	7.517508332052e-20	2.041035702667e-01	6.449871724487e-01
0.0212118           	7.198275307084e-02	8.504888551680e-17	8.520329188970e-01	-8.857563705653e-17	-2.210795828287e-01	4.566409632405e-17	3.599137653542e-02	3.599137653542e-02	8.818853908246e-17	-3.139653565655e-18	2.049368766198e-01	6.470960422772e-01
0.0214627           	7.196687306182e-02	-1.261290602321e-16	8.543636785424e-01	-5.949622369323e-18	-2.214063235772e-01	-6.012297221358e-17	3.598343653091e-02	3.598343653091e-02	-1.231875023296e-16	-2.941557902477e-18	2.057755156940e-01	6.485881628483e-01
0.0217133           	7.215361068763e-02	-2.032032796097e-17	8.576057561775e-01	2.375340514467e-17	-2.221967238667e-01	-6.118912575107e-18	3.607680534381e-02	3.607680534381e-02	-1.627907655559e-17	-4.041251405379e-18	2.066061542221e-01	6.509996019554e-01
0.0219637           	7.224167076007e-02	-1.035994924881e-17	8.603395062676e-01	8.518164252441e-18	-2.227392283234e-01	-4.340683385710e-18	3.612083538003e-02	3.612083538003e-02	-9.520658010116e-18	-8.392912386970e-19	2.074305248104e-01	6.529089814573e-01
0.0222138           	7.254438003105e-02	-2.057735404739e-17	8.639413030300e-01	1.865158700936e-17	-2.236808927242e-01	-6.554655038121e-18	3.627219001552e-02	3.627219001552e-02	-1.684333206182e-17	-3.734021985574e-18	2.082897587908e-01	6.556515442392e-01
0.0224638           	7.251955586290e-02	-1.419827910090e-17	8.660049391441e-01	1.906360304350e-17	-2.239190789813e-01	-7.813931292713e-18	3.625977793145e-02	3.625977793145e-02	-1.491307084316e-17	7.147917422608e-19	2.090833905907e-01	6.569215485534e-01
0.0227137           	7.316885363023e-02	8.684584355099e-17	8.710794192514e-01	-8.622521212589e-17	-2.255992892114e-01	4.775288389076e-17	3.658442681512e-02	3.658442681512e-02	9.117580566625e-17	-4.329962115262e-18	2.099404204143e-01	6.611389988371e-01
0.0229632           	7.282627677612e-02	-1.289432867981e-16	8.716593665820e-01	9.119539836514e-18	-2.251075619459e-01	-5.781206558403e-17	3.641313838806e-02	3.641313838806e-02	-1.222837089831e-16	-6.659577815039e-18	2.107221213452e-01	6.609372452369e-01
0.0232125           	7.297973835037e-02	-2.292731190935e-17	8.745027462672e-01	8.049920778790e-18	-2.257013951332e-01	-1.514238845000e-17	3.648986917519e-02	3.648986917519e-02	-2.660604440468e-17	3.678732495325e-18	2.115499780004e-01	6.629527682669e-01
0.0234616           	7.306711333183e-02	8.395676313472e-17	8.770410961351e-01	-9.021739917819e-17	-2.261735771129e-01	4.471941585651e-17	3.653355666592e-02	3.653355666592e-02	8.669779742388e-17	-2.741034289153e-18	2.123469709547e-01	6.646941251805e-01
0.0237104           	7.319480500426e-02	-1.279911099168e-16	8.796864590070e-01	1.134653647813e-17	-2.266931318041e-01	-5.791690727134e-17	3.659740250213e-02	3.659740250213e-02	-1.219124622297e-16	-6.078647687039e-18	2.131500976994e-01	6.665363613076e-01
0.0239592           	7.324854715260e-02	9.173616774810e-17	8.821055787574e-01	-8.942459971446e-17	-2.271245933269e-01	4.973641319509e-17	3.662427357630e-02	3.662427357630e-02	9.560449706914e-17	-3.868329321040e-18	2.139281960518e-01	6.681773827056e-01
0.0242077           	7.333582768322e-02	-1.288159870459e-16	8.848628404795e-01	8.829871711472e-18	-2.276947440520e-01	-5.548293047948e-17	3.666791384161e-02	3.666791384161e-02	-1.198909240024e-16	-8.925063043465e-18	2.147366761878e-01	6.701261642917e-01
0.024456            	7.346695631428e-02	-1.689886478786e-17	8.871189239153e-01	8.918598631013e-18	-2.280575235916e-01	-9.330621102056e-18	3.673347815714e-02	3.673347815714e-02	-1.778005349599e-17	8.811887081273e-19	2.155019383661e-01	6.716169855492e-01
0.0247042           	7.613296608899e-02	-1.517917905701e-17	8.927765063850e-01	1.331476948112e-17	-2.302405421831e-01	-6.078149214067e-18	3.806648304450e-02	3.806648304450e-02	-1.366773874257e-17	-1.511440314439e-18	2.161477110094e-01	6.766287953756e-01
0.0249522           	7.382154969891e-02	-2.038871872814e-17	8.931485296964e-01	1.396874274751e-17	-2.293861302374e-01	-1.115383465688e-17	3.691077484946e-02	3.691077484946e-02	-2.134819402095e-17	9.594752928070e-19	2.171881346108e-01	6.759603950856e-01